ITEM: TIMESTEP
-1
ITEM: NUMBER OF ATOMS
372
ITEM: BOX BOUNDS
-1	1
-1	1
-1	1
ITEM: ATOMS index type x y z Vq Va Vq/a
0	1	0.851000000000	0.000000000000	0.526000000000	1.702810106806	0.018436816540	92.359226068265
1	1	0.526000000000	0.851000000000	0.000000000000	1.747949432643	0.018436816540	94.807551446931
2	1	-0.526000000000	0.851000000000	0.000000000000	1.857122919076	0.018436816540	100.729044791263
3	1	-0.851000000000	0.000000000000	0.526000000000	0.887666354973	0.018436816540	48.146400602435
4	1	0.000000000000	-0.526000000000	0.851000000000	1.700645468068	0.018436816540	92.241817581094
5	1	0.526000000000	-0.851000000000	0.000000000000	1.547646014611	0.018436816540	83.943234519070
6	1	0.851000000000	0.000000000000	-0.526000000000	1.546944864181	0.018436816540	83.905204611438
7	1	0.000000000000	0.526000000000	-0.851000000000	1.636123859552	0.018436816540	88.742210782088
8	1	-0.851000000000	0.000000000000	-0.526000000000	1.546876157500	0.018436816540	83.901478009248
9	1	-0.526000000000	-0.851000000000	0.000000000000	1.854076867034	0.018436816540	100.563829064564
10	1	0.000000000000	-0.526000000000	-0.851000000000	1.324138712811	0.018436816540	71.820355207795
11	1	0.685000000000	0.147000000000	0.713000000000	1.702242661980	0.032130021036	52.979817848685
12	1	0.450000000000	0.848000000000	0.280000000000	1.327649552800	0.032144583920	41.302433906267
13	1	-0.407000000000	0.874000000000	0.264000000000	0.887666354973	0.032128594000	27.628546552120
14	1	-0.702000000000	0.189000000000	0.687000000000	1.546876157500	0.032126868799	48.148986046562
15	1	-0.026000000000	-0.261000000000	0.965000000000	1.639622360815	0.032168047658	50.970527594444
16	1	0.407000000000	-0.874000000000	0.264000000000	1.702810106806	0.032128594000	52.999832698101
17	1	0.702000000000	-0.189000000000	0.687000000000	1.641402196507	0.032126868799	51.091259680507
18	1	0.965000000000	-0.026000000000	-0.261000000000	1.645652937085	0.032168047658	51.157998600887
19	1	0.713000000000	0.685000000000	0.147000000000	1.861026667783	0.032130021036	57.921738229715
20	1	0.189000000000	0.687000000000	-0.702000000000	1.645652937085	0.032126868799	51.223570756452
21	1	-0.261000000000	0.965000000000	-0.026000000000	1.327649552800	0.032168047658	41.272307443482
22	1	-0.848000000000	0.280000000000	-0.450000000000	1.854076867034	0.032144583920	57.679292774421
23	1	-0.874000000000	0.264000000000	0.407000000000	1.854076867034	0.032128594000	57.707998895128
24	1	-0.713000000000	-0.685000000000	0.147000000000	1.747858245137	0.032130021036	54.399536282888
25	1	-0.280000000000	-0.450000000000	0.848000000000	1.645652937085	0.032144583920	51.195341062128
26	1	0.147000000000	-0.713000000000	-0.685000000000	1.857122919076	0.032130021036	57.800239750082
27	1	0.848000000000	-0.280000000000	-0.450000000000	1.641402196507	0.032144583920	51.063102903809
28	1	0.264000000000	0.407000000000	-0.874000000000	1.645652937085	0.032128594000	51.220820217115
29	1	-0.685000000000	0.147000000000	-0.713000000000	1.702018534774	0.032130021036	52.972842216590
30	1	-0.687000000000	-0.702000000000	-0.189000000000	1.702242661980	0.032126868799	52.985016145065
31	1	0.761000000000	-0.016000000000	0.648000000000	1.546944864181	0.027564870473	56.120157201075
32	1	0.572000000000	0.808000000000	0.139000000000	1.700645468068	0.027529437220	61.775526120275
33	1	-0.408000000000	0.910000000000	0.076000000000	1.747657129268	0.027575260792	63.377718980123
34	1	-0.824000000000	0.149000000000	0.547000000000	1.856460020186	0.027502340699	67.501891583935
35	1	-0.102000000000	-0.423000000000	0.900000000000	1.700645468068	0.027568618633	61.687728743733
36	1	0.408000000000	-0.910000000000	0.076000000000	1.546793095276	0.027575260792	56.093507399712
37	1	0.824000000000	-0.149000000000	0.547000000000	1.546944864181	0.027502340699	56.247752912995
38	1	0.900000000000	-0.102000000000	-0.423000000000	1.639622360815	0.027568618633	59.474229835211
39	1	0.648000000000	0.761000000000	-0.016000000000	0.887666354973	0.027564870473	32.202812483295
40	1	0.149000000000	0.547000000000	-0.824000000000	1.325443312760	0.027502340699	48.193836562990
41	1	-0.423000000000	0.900000000000	-0.102000000000	1.747949432643	0.027568618633	63.403591449985
42	1	-0.808000000000	0.139000000000	-0.572000000000	1.854076867034	0.027529437220	67.348883749729
43	1	-0.910000000000	0.076000000000	0.408000000000	1.747657129268	0.027575260792	63.377718980123
44	1	-0.648000000000	-0.761000000000	-0.016000000000	1.747949432643	0.027564870473	63.412212814335
45	1	-0.139000000000	-0.572000000000	0.808000000000	1.641407881579	0.027529437220	59.623735438341
46	1	-0.016000000000	-0.648000000000	-0.761000000000	1.858436986061	0.027564870473	67.420486806592
47	1	0.808000000000	-0.139000000000	-0.572000000000	1.856460020186	0.027529437220	67.435451198713
48	1	0.076000000000	0.408000000000	-0.910000000000	1.703804202831	0.027575260792	61.787419371773
49	1	-0.761000000000	-0.016000000000	-0.648000000000	1.857122919076	0.027564870473	67.372815006868
50	1	-0.547000000000	-0.824000000000	-0.149000000000	1.639622360815	0.027502340699	59.617556874315
51	1	0.412000000000	0.305000000000	0.859000000000	1.325443312760	0.035355553908	37.488970366720
52	1	0.309000000000	0.751000000000	0.583000000000	1.641407881579	0.035350898789	46.431857117807
53	1	-0.221000000000	0.806000000000	0.549000000000	1.327149296355	0.035387987088	37.502819617048
54	1	-0.446000000000	0.394000000000	0.804000000000	1.700645468068	0.035322380215	48.146400602435
55	1	-0.055000000000	0.085000000000	0.995000000000	1.861026667783	0.035367339728	52.619922280664
56	1	0.221000000000	-0.806000000000	0.549000000000	1.327649552800	0.035387987088	37.516955952188
57	1	0.446000000000	-0.394000000000	0.804000000000	1.702810106806	0.035322380215	48.207682960108
58	1	0.995000000000	-0.055000000000	0.085000000000	1.747657129268	0.035367339728	49.414435541064
59	1	0.859000000000	0.412000000000	0.305000000000	1.746075678948	0.035355553908	49.386178010021
60	1	0.394000000000	0.804000000000	-0.446000000000	1.547646014611	0.035322380215	43.814884647803
61	1	0.085000000000	0.995000000000	-0.055000000000	1.703804202831	0.035367339728	48.174508343425
62	1	-0.751000000000	0.583000000000	-0.309000000000	1.751193016699	0.035350898789	49.537439687967
63	1	-0.806000000000	0.549000000000	0.221000000000	1.747858245137	0.035387987088	49.391287524004
64	1	-0.859000000000	-0.412000000000	0.305000000000	1.324138712811	0.035355553908	37.452070932137
65	1	-0.583000000000	-0.309000000000	0.751000000000	1.702810106806	0.035350898789	48.168792452691
66	1	0.305000000000	-0.859000000000	-0.412000000000	1.547646014611	0.035355553908	43.773773666049
67	1	0.751000000000	-0.583000000000	-0.309000000000	1.856460020186	0.035350898789	52.515214146076
68	1	0.549000000000	0.221000000000	-0.806000000000	1.702242661980	0.035387987088	48.102274304806
69	1	-0.412000000000	0.305000000000	-0.859000000000	1.636123859552	0.035355553908	46.276289824374
70	1	-0.804000000000	-0.446000000000	-0.394000000000	1.327329756757	0.035322380215	37.577585334679
71	1	0.533000000000	0.139000000000	0.835000000000	1.702810106806	0.036302988869	46.905507228794
72	1	0.470000000000	0.759000000000	0.451000000000	1.327329756757	0.036372252023	36.492922019999
73	1	-0.243000000000	0.899000000000	0.365000000000	1.327329756757	0.036265964996	36.599874204115
74	1	-0.620000000000	0.366000000000	0.694000000000	1.645652937085	0.036304882832	45.328694344222
75	1	-0.140000000000	-0.104000000000	0.985000000000	1.856460020186	0.036298811695	51.143823543741
76	1	0.243000000000	-0.899000000000	0.365000000000	1.747858245137	0.036265964996	48.195553194649
77	1	0.620000000000	-0.366000000000	0.694000000000	1.702242661980	0.036304882832	46.887430262967
78	1	0.985000000000	-0.140000000000	-0.104000000000	1.546876157500	0.036298811695	42.615063283336
79	1	0.835000000000	0.533000000000	0.139000000000	1.641407881579	0.036302988869	45.214125137654
80	1	0.366000000000	0.694000000000	-0.620000000000	1.636123859552	0.036304882832	45.066220627497
81	1	-0.104000000000	0.985000000000	-0.140000000000	1.858436986061	0.036298811695	51.198287196485
82	1	-0.759000000000	0.451000000000	-0.470000000000	1.636123859552	0.036372252023	44.982748347006
83	1	-0.899000000000	0.365000000000	0.243000000000	1.547646014611	0.036265964996	42.674888556435
84	1	-0.835000000000	-0.533000000000	0.139000000000	1.327329756757	0.036302988869	36.562547551082
85	1	-0.451000000000	-0.470000000000	0.759000000000	1.548775709143	0.036372252023	42.581243200874
86	1	0.139000000000	-0.835000000000	-0.533000000000	1.747657129268	0.036302988869	48.140860676529
87	1	0.759000000000	-0.451000000000	-0.470000000000	1.546793095276	0.036372252023	42.526734234355
88	1	0.365000000000	0.243000000000	-0.899000000000	1.636123859552	0.036265964996	45.114582218260
89	1	-0.533000000000	0.139000000000	-0.835000000000	1.546876157500	0.036302988869	42.610159816200
90	1	-0.694000000000	-0.620000000000	-0.366000000000	1.856460020186	0.036304882832	51.135270943791
91	1	0.631000000000	-0.034000000000	0.775000000000	1.747949432643	0.034180186192	51.139260120023
92	1	0.610000000000	0.733000000000	0.300000000000	1.703804202831	0.033982267399	50.138037666692
93	1	-0.255000000000	0.953000000000	0.165000000000	1.747949432643	0.034091898376	51.271695502746
94	1	-0.767000000000	0.321000000000	0.555000000000	1.856460020186	0.034054931216	54.513691670959
95	1	-0.220000000000	-0.288000000000	0.932000000000	1.639622360815	0.034092016455	48.094027027916
96	1	0.255000000000	-0.953000000000	0.165000000000	1.702810106806	0.034091898376	49.947647034129
97	1	0.767000000000	-0.321000000000	0.555000000000	1.324138712811	0.034054931216	38.882436860959
98	1	0.932000000000	-0.220000000000	-0.288000000000	1.327149296355	0.034092016455	38.928448192943
99	1	0.775000000000	0.631000000000	-0.034000000000	1.703804202831	0.034180186192	49.847715668981
100	1	0.321000000000	0.555000000000	-0.767000000000	1.546876157500	0.034054931216	45.422971131193
101	1	-0.288000000000	0.932000000000	-0.220000000000	1.746075678948	0.034092016455	51.216556265062
102	1	-0.733000000000	0.300000000000	-0.610000000000	1.861026667783	0.033982267399	54.764640803780
103	1	-0.953000000000	0.165000000000	0.255000000000	1.327149296355	0.034091898376	38.928583023415
104	1	-0.775000000000	-0.631000000000	-0.034000000000	1.751193016699	0.034180186192	51.234156737542
105	1	-0.300000000000	-0.610000000000	0.733000000000	1.746075678948	0.033982267399	51.381965142790
106	1	-0.034000000000	-0.775000000000	-0.631000000000	1.700645468068	0.034180186192	49.755301463131
107	1	0.733000000000	-0.300000000000	-0.610000000000	1.702018534774	0.033982267399	50.085490612203
108	1	0.165000000000	0.255000000000	-0.953000000000	1.641402196507	0.034091898376	48.146400602435
109	1	-0.631000000000	-0.034000000000	-0.775000000000	1.702810106806	0.034180186192	49.818631683921
110	1	-0.555000000000	-0.767000000000	-0.321000000000	1.548775709143	0.034054931216	45.478750179209
111	1	0.000000000000	0.526000000000	0.851000000000	1.327329756757	0.018436816540	71.993435193662
112	1	0.102000000000	0.423000000000	0.900000000000	1.747949432643	0.027568618633	63.403591449985
113	1	0.139000000000	0.572000000000	0.808000000000	1.546944864181	0.027529437220	56.192389688592
114	1	-0.016000000000	0.648000000000	0.761000000000	1.854076867034	0.027564870473	67.262310150854
115	1	-0.149000000000	0.547000000000	0.824000000000	1.325443312760	0.027502340699	48.193836562990
116	1	-0.076000000000	0.408000000000	0.910000000000	1.639622360815	0.027575260792	59.459904049225
117	1	0.016000000000	-0.648000000000	0.761000000000	1.858436986061	0.027564870473	67.420486806592
118	1	0.149000000000	-0.547000000000	0.824000000000	1.325443312760	0.027502340699	48.193836562990
119	1	0.910000000000	-0.076000000000	0.408000000000	1.861026667783	0.027575260792	67.488996090798
120	1	0.900000000000	0.102000000000	0.423000000000	1.327149296355	0.027568618633	48.139854739370
121	1	0.547000000000	0.824000000000	-0.149000000000	1.751193016699	0.027502340699	63.674326336393
122	1	0.408000000000	0.910000000000	-0.076000000000	1.327329756757	0.027575260792	48.134803394149
123	1	-0.572000000000	0.808000000000	-0.139000000000	1.703804202831	0.027529437220	61.890266379494
124	1	-0.648000000000	0.761000000000	0.016000000000	1.641402196507	0.027564870473	59.546885885261
125	1	-0.900000000000	-0.102000000000	0.423000000000	1.751193016699	0.027568618633	63.521246385801
126	1	-0.808000000000	-0.139000000000	0.572000000000	1.548775709143	0.027529437220	56.258894679158
127	1	0.423000000000	-0.900000000000	-0.102000000000	1.641407881579	0.027568618633	59.538996256340
128	1	0.572000000000	-0.808000000000	-0.139000000000	1.854076867034	0.027529437220	67.348883749729
129	1	0.761000000000	0.016000000000	-0.648000000000	1.858436986061	0.027564870473	67.420486806592
130	1	-0.102000000000	0.423000000000	-0.900000000000	1.747657129268	0.027568618633	63.392988692595
131	1	-0.824000000000	-0.149000000000	-0.547000000000	1.747858245137	0.027502340699	63.553072236653
132	1	0.220000000000	0.288000000000	0.932000000000	1.747657129268	0.034092016455	51.262943967657
133	1	0.300000000000	0.610000000000	0.733000000000	1.746075678948	0.033982267399	51.381965142790
134	1	-0.034000000000	0.775000000000	0.631000000000	1.751193016699	0.034180186192	51.234156737542
135	1	-0.321000000000	0.555000000000	0.767000000000	1.747858245137	0.034054931216	51.324674069958
136	1	-0.165000000000	0.255000000000	0.953000000000	1.700645468068	0.034091898376	49.884152807016
137	1	0.034000000000	-0.775000000000	0.631000000000	1.702242661980	0.034180186192	49.802030111801
138	1	0.321000000000	-0.555000000000	0.767000000000	1.702810106806	0.034054931216	50.001865985432
139	1	0.953000000000	-0.165000000000	0.255000000000	1.702810106806	0.034091898376	49.947647034129
140	1	0.932000000000	0.220000000000	0.288000000000	1.641402196507	0.034092016455	48.146233845739
141	1	0.555000000000	0.767000000000	-0.321000000000	0.887666354973	0.034054931216	26.065721564455
142	1	0.255000000000	0.953000000000	-0.165000000000	1.861026667783	0.034091898376	54.588531482143
143	1	-0.610000000000	0.733000000000	-0.300000000000	1.856460020186	0.033982267399	54.630257551965
144	1	-0.775000000000	0.631000000000	0.034000000000	1.327329756757	0.034180186192	38.833309721785
145	1	-0.932000000000	-0.220000000000	0.288000000000	1.751193016699	0.034092016455	51.366659963320
146	1	-0.733000000000	-0.300000000000	0.610000000000	1.641402196507	0.033982267399	48.301726816919
147	1	0.288000000000	-0.932000000000	-0.220000000000	1.857122919076	0.034092016455	54.473836170319
148	1	0.610000000000	-0.733000000000	-0.300000000000	1.546876157500	0.033982267399	45.520098448855
149	1	0.631000000000	0.034000000000	-0.775000000000	1.327329756757	0.034180186192	38.833309721785
150	1	-0.220000000000	0.288000000000	-0.932000000000	1.327649552800	0.034092016455	38.943121905367
151	1	-0.767000000000	-0.321000000000	-0.555000000000	1.856460020186	0.034054931216	54.513691670959
152	1	0.344000000000	0.124000000000	0.931000000000	1.702018534774	0.038509148012	44.197771767211
153	1	0.471000000000	0.628000000000	0.619000000000	1.857122919076	0.038653495266	48.045407181799
154	1	-0.053000000000	0.887000000000	0.459000000000	1.639622360815	0.038599707617	42.477584988137
155	1	-0.504000000000	0.542000000000	0.672000000000	1.702242661980	0.038572414466	44.131089161844
156	1	-0.258000000000	0.071000000000	0.963000000000	1.546793095276	0.038558646066	40.115337364914
157	1	0.053000000000	-0.887000000000	0.459000000000	1.702018534774	0.038599707617	44.094078423238
158	1	0.504000000000	-0.542000000000	0.672000000000	0.887666354973	0.038572414466	23.012983948908
159	1	0.963000000000	-0.258000000000	0.071000000000	1.324138712811	0.038558646066	34.340902700301
160	1	0.931000000000	0.344000000000	0.124000000000	1.702810106806	0.038509148012	44.218327195543
161	1	0.542000000000	0.672000000000	-0.504000000000	1.702018534774	0.038572414466	44.125278605024
162	1	0.071000000000	0.963000000000	-0.258000000000	1.857122919076	0.038558646066	48.163592567356
163	1	-0.628000000000	0.619000000000	-0.471000000000	1.700645468068	0.038653495266	43.997197571532
164	1	-0.887000000000	0.459000000000	0.053000000000	1.858436986061	0.038599707617	48.146400602435
165	1	-0.931000000000	-0.344000000000	0.124000000000	1.548775709143	0.038509148012	40.218384178993
166	1	-0.619000000000	-0.471000000000	0.628000000000	1.325443312760	0.038653495266	34.290387030281
167	1	0.124000000000	-0.931000000000	-0.344000000000	1.548775709143	0.038509148012	40.218384178993
168	1	0.628000000000	-0.619000000000	-0.471000000000	1.641402196507	0.038653495266	42.464521906555
169	1	0.459000000000	0.053000000000	-0.887000000000	1.702018534774	0.038599707617	44.094078423238
170	1	-0.344000000000	0.124000000000	-0.931000000000	1.641407881579	0.038509148012	42.623843069107
171	1	-0.672000000000	-0.504000000000	-0.542000000000	1.327149296355	0.038572414466	34.406694907046
172	1	0.459000000000	-0.053000000000	0.887000000000	1.546793095276	0.038599707617	40.072663519292
173	1	0.628000000000	0.619000000000	0.471000000000	1.327649552800	0.038653495266	34.347464405182
174	1	-0.071000000000	0.963000000000	0.258000000000	1.856460020186	0.038558646066	48.146400602435
175	1	-0.672000000000	0.504000000000	0.542000000000	1.854076867034	0.038572414466	48.067430901294
176	1	-0.344000000000	-0.124000000000	0.931000000000	1.639622360815	0.038509148012	42.577476923490
177	1	0.071000000000	-0.963000000000	0.258000000000	1.746075678948	0.038558646066	45.283635632725
178	1	0.672000000000	-0.504000000000	0.542000000000	1.703804202831	0.038572414466	44.171572519506
179	1	0.931000000000	-0.344000000000	-0.124000000000	1.324138712811	0.038509148012	34.385043065769
180	1	0.887000000000	0.459000000000	-0.053000000000	1.548775709143	0.038599707617	40.124026961922
181	1	0.504000000000	0.542000000000	-0.672000000000	1.702810106806	0.038572414466	44.145800318353
182	1	-0.124000000000	0.931000000000	-0.344000000000	1.546793095276	0.038509148012	40.166899948100
183	1	-0.619000000000	0.471000000000	-0.628000000000	1.325443312760	0.038653495266	34.290387030281
184	1	-0.963000000000	0.258000000000	0.071000000000	1.548775709143	0.038558646066	40.166755505072
185	1	-0.887000000000	-0.459000000000	-0.053000000000	1.751193016699	0.038599707617	45.368038382026
186	1	-0.471000000000	-0.628000000000	0.619000000000	1.324138712811	0.038653495266	34.256635879458
187	1	-0.053000000000	-0.887000000000	-0.459000000000	1.546876157500	0.038599707617	40.074815406686
188	1	0.619000000000	-0.471000000000	-0.628000000000	1.645652937085	0.038653495266	42.574492312807
189	1	0.258000000000	0.071000000000	-0.963000000000	1.327649552800	0.038558646066	34.431954652258
190	1	-0.459000000000	-0.053000000000	-0.887000000000	1.700645468068	0.038599707617	44.058506477468
191	1	-0.542000000000	-0.672000000000	-0.504000000000	1.854076867034	0.038572414466	48.067430901294
192	1	0.549000000000	-0.221000000000	0.806000000000	1.325443312760	0.035387987088	37.454611630792
193	1	0.751000000000	0.583000000000	0.309000000000	1.702242661980	0.035350898789	48.152740673371
194	1	-0.085000000000	0.995000000000	0.055000000000	1.747657129268	0.035367339728	49.414435541064
195	1	-0.804000000000	0.446000000000	0.394000000000	1.856460020186	0.035322380215	52.557613866337
196	1	-0.412000000000	-0.305000000000	0.859000000000	1.547646014611	0.035355553908	43.773773666049
197	1	0.085000000000	-0.995000000000	0.055000000000	1.747657129268	0.035367339728	49.414435541064
198	1	0.804000000000	-0.446000000000	0.394000000000	1.703804202831	0.035322380215	48.235826477576
199	1	0.859000000000	-0.412000000000	-0.305000000000	1.636123859552	0.035355553908	46.276289824374
200	1	0.806000000000	0.549000000000	-0.221000000000	1.546944864181	0.035387987088	43.713841659139
201	1	0.446000000000	0.394000000000	-0.804000000000	1.702018534774	0.035322380215	48.185273031126
202	1	-0.305000000000	0.859000000000	-0.412000000000	1.548775709143	0.035355553908	43.805726058464
203	1	-0.583000000000	0.309000000000	-0.751000000000	1.747657129268	0.035350898789	49.437417126962
204	1	-0.995000000000	0.055000000000	0.085000000000	1.641407881579	0.035367339728	46.410272703111
205	1	-0.806000000000	-0.549000000000	-0.221000000000	1.636123859552	0.035387987088	46.233877487992
206	1	-0.309000000000	-0.751000000000	0.583000000000	1.639622360815	0.035350898789	46.381348620839
207	1	-0.221000000000	-0.806000000000	-0.549000000000	1.702018534774	0.035387987088	48.095940878568
208	1	0.583000000000	-0.309000000000	-0.751000000000	1.751193016699	0.035350898789	49.537439687967
209	1	0.055000000000	0.085000000000	-0.995000000000	1.327649552800	0.035367339728	37.538858251580
210	1	-0.549000000000	-0.221000000000	-0.806000000000	1.327649552800	0.035387987088	37.516955952188
211	1	-0.394000000000	-0.804000000000	-0.446000000000	1.636123859552	0.035322380215	46.319751092327
212	1	0.026000000000	0.261000000000	0.965000000000	1.636123859552	0.032168047658	50.861770566367
213	1	0.280000000000	0.450000000000	0.848000000000	1.546944864181	0.032144583920	48.124588205305
214	1	0.147000000000	0.713000000000	0.685000000000	1.645652937085	0.032130021036	51.218545273366
215	1	-0.189000000000	0.687000000000	0.702000000000	1.639622360815	0.032126868799	51.035859457614
216	1	-0.264000000000	0.407000000000	0.874000000000	1.746075678948	0.032128594000	54.346470280258
217	1	-0.147000000000	-0.713000000000	0.685000000000	1.641402196507	0.032130021036	51.086247178301
218	1	0.189000000000	-0.687000000000	0.702000000000	1.546793095276	0.032126868799	48.146400602435
219	1	0.874000000000	-0.264000000000	0.407000000000	1.747949432643	0.032128594000	54.404790718904
220	1	0.965000000000	0.026000000000	0.261000000000	1.747949432643	0.032168047658	54.338064007598
221	1	0.687000000000	0.702000000000	-0.189000000000	1.548775709143	0.032126868799	48.208112619257
222	1	0.407000000000	0.874000000000	-0.264000000000	1.547646014611	0.032128594000	48.170362345391
223	1	-0.450000000000	0.848000000000	-0.280000000000	1.746075678948	0.032144583920	54.319436309825
224	1	-0.713000000000	0.685000000000	-0.147000000000	1.700645468068	0.032130021036	52.930107519823
225	1	-0.965000000000	-0.026000000000	0.261000000000	1.327149296355	0.032168047658	41.256756097292
226	1	-0.848000000000	-0.280000000000	0.450000000000	1.547646014611	0.032144583920	48.146400602435
227	1	0.261000000000	-0.965000000000	-0.026000000000	1.641407881579	0.032168047658	51.026033628981
228	1	0.450000000000	-0.848000000000	-0.280000000000	1.747858245137	0.032144583920	54.374890945453
229	1	0.685000000000	-0.147000000000	-0.713000000000	1.861026667783	0.032130021036	57.921738229715
230	1	-0.026000000000	0.261000000000	-0.965000000000	1.324138712811	0.032168047658	41.163166844511
231	1	-0.702000000000	-0.189000000000	-0.687000000000	1.546944864181	0.032126868799	48.151124651520
232	1	0.140000000000	0.104000000000	0.985000000000	1.751193016699	0.036298811695	48.243811158474
233	1	0.451000000000	0.470000000000	0.759000000000	1.854076867034	0.036372252023	50.975036296208
234	1	0.139000000000	0.835000000000	0.533000000000	1.700645468068	0.036302988869	46.845880217199
235	1	-0.366000000000	0.694000000000	0.620000000000	1.546876157500	0.036304882832	42.607936917671
236	1	-0.365000000000	0.243000000000	0.899000000000	1.702018534774	0.036265964996	46.931566137715
237	1	-0.139000000000	-0.835000000000	0.533000000000	1.645652937085	0.036302988869	45.331059187377
238	1	0.366000000000	-0.694000000000	0.620000000000	1.327649552800	0.036304882832	36.569448769520
239	1	0.899000000000	-0.365000000000	0.243000000000	1.861026667783	0.036265964996	51.316066399171
240	1	0.985000000000	0.140000000000	0.104000000000	1.636123859552	0.036298811695	45.073758151972
241	1	0.694000000000	0.620000000000	-0.366000000000	1.861026667783	0.036304882832	51.261056988006
242	1	0.243000000000	0.899000000000	-0.365000000000	1.703804202831	0.036265964996	46.980804261031
243	1	-0.470000000000	0.759000000000	-0.451000000000	1.641407881579	0.036372252023	45.128024532362
244	1	-0.835000000000	0.533000000000	-0.139000000000	1.702242661980	0.036302988869	46.889876426928
245	1	-0.985000000000	-0.140000000000	0.104000000000	1.325443312760	0.036298811695	36.514785219146
246	1	-0.759000000000	-0.451000000000	0.470000000000	1.546944864181	0.036372252023	42.530906890616
247	1	0.104000000000	-0.985000000000	-0.140000000000	1.746075678948	0.036298811695	48.102833051699
248	1	0.470000000000	-0.759000000000	-0.451000000000	1.641407881579	0.036372252023	45.128024532362
249	1	0.533000000000	-0.139000000000	-0.835000000000	1.641407881579	0.036302988869	45.214125137654
250	1	-0.140000000000	0.104000000000	-0.985000000000	1.548775709143	0.036298811695	42.667394242802
251	1	-0.620000000000	-0.366000000000	-0.694000000000	1.700645468068	0.036304882832	46.843436348444
252	1	0.258000000000	-0.071000000000	0.963000000000	1.641402196507	0.038558646066	42.568979048006
253	1	0.619000000000	0.471000000000	0.628000000000	1.324138712811	0.038653495266	34.256635879458
254	1	0.124000000000	0.931000000000	0.344000000000	1.700645468068	0.038509148012	44.162116169073
255	1	-0.542000000000	0.672000000000	0.504000000000	1.639622360815	0.038572414466	42.507641368060
256	1	-0.459000000000	0.053000000000	0.887000000000	1.861026667783	0.038599707617	48.213491310676
257	1	-0.124000000000	-0.931000000000	0.344000000000	1.324138712811	0.038509148012	34.385043065769
258	1	0.542000000000	-0.672000000000	0.504000000000	1.327149296355	0.038572414466	34.406694907046
259	1	0.887000000000	-0.459000000000	0.053000000000	1.641402196507	0.038599707617	42.523695070367
260	1	0.963000000000	0.258000000000	-0.071000000000	0.887666354973	0.038558646066	23.021201352656
261	1	0.672000000000	0.504000000000	-0.542000000000	0.887666354973	0.038572414466	23.012983948908
262	1	0.053000000000	0.887000000000	-0.459000000000	1.702242661980	0.038599707617	44.099884871520
263	1	-0.471000000000	0.628000000000	-0.619000000000	1.861026667783	0.038653495266	48.146400602435
264	1	-0.931000000000	0.344000000000	-0.124000000000	1.751193016699	0.038509148012	45.474727619618
265	1	-0.963000000000	-0.258000000000	-0.071000000000	1.327329756757	0.038558646066	34.423660895201
266	1	-0.628000000000	-0.619000000000	0.471000000000	1.546793095276	0.038653495266	40.016901049006
267	1	-0.071000000000	-0.963000000000	-0.258000000000	1.324138712811	0.038558646066	34.340902700301
268	1	0.471000000000	-0.628000000000	-0.619000000000	1.636123859552	0.038653495266	42.327966676085
269	1	0.344000000000	-0.124000000000	-0.931000000000	1.546944864181	0.038509148012	40.170841061133
270	1	-0.258000000000	-0.071000000000	-0.963000000000	1.703804202831	0.038558646066	44.187345165348
271	1	-0.504000000000	-0.542000000000	-0.672000000000	1.327329756757	0.038572414466	34.411373390490
272	1	0.365000000000	-0.243000000000	0.899000000000	1.747949432643	0.036265964996	48.198067604687
273	1	0.759000000000	0.451000000000	0.470000000000	1.702242661980	0.036372252023	46.800584712666
274	1	0.104000000000	0.985000000000	0.140000000000	1.747949432643	0.036298811695	48.154453300617
275	1	-0.694000000000	0.620000000000	0.366000000000	1.327149296355	0.036304882832	36.555669453727
276	1	-0.533000000000	-0.139000000000	0.835000000000	1.857122919076	0.036302988869	51.156198895755
277	1	-0.104000000000	-0.985000000000	0.140000000000	1.327149296355	0.036298811695	36.561783550923
278	1	0.694000000000	-0.620000000000	0.366000000000	1.325443312760	0.036304882832	36.508678981313
279	1	0.835000000000	-0.533000000000	-0.139000000000	1.702810106806	0.036302988869	46.905507228794
280	1	0.899000000000	0.365000000000	-0.243000000000	1.327149296355	0.036265964996	36.594898177626
281	1	0.620000000000	0.366000000000	-0.694000000000	1.751193016699	0.036304882832	48.235743517294
282	1	-0.139000000000	0.835000000000	-0.533000000000	1.546876157500	0.036302988869	42.610159816200
283	1	-0.451000000000	0.470000000000	-0.759000000000	1.327149296355	0.036372252023	36.487960534459
284	1	-0.985000000000	0.140000000000	-0.104000000000	1.547646014611	0.036298811695	42.636272162498
285	1	-0.899000000000	-0.365000000000	-0.243000000000	0.887666354973	0.036265964996	24.476567907752
286	1	-0.470000000000	-0.759000000000	0.451000000000	1.858436986061	0.036372252023	51.094911167430
287	1	-0.243000000000	-0.899000000000	-0.365000000000	1.751193016699	0.036265964996	48.287506395469
288	1	0.451000000000	-0.470000000000	-0.759000000000	1.324138712811	0.036372252023	36.405189098094
289	1	0.140000000000	-0.104000000000	-0.985000000000	1.747657129268	0.036298811695	48.146400602435
290	1	-0.365000000000	-0.243000000000	-0.899000000000	1.548775709143	0.036265964996	42.706038824535
291	1	-0.366000000000	-0.694000000000	-0.620000000000	1.327649552800	0.036304882832	36.569448769520
292	1	0.055000000000	-0.085000000000	0.995000000000	1.747858245137	0.035367339728	49.420122026677
293	1	0.583000000000	0.309000000000	0.751000000000	1.856460020186	0.035350898789	52.515214146076
294	1	0.305000000000	0.859000000000	0.412000000000	1.641407881579	0.035355553908	46.425743628446
295	1	-0.394000000000	0.804000000000	0.446000000000	1.858436986061	0.035322380215	52.613583080845
296	1	-0.549000000000	0.221000000000	0.806000000000	1.747858245137	0.035387987088	49.391287524004
297	1	-0.305000000000	-0.859000000000	0.412000000000	1.327649552800	0.035355553908	37.551371879260
298	1	0.394000000000	-0.804000000000	0.446000000000	1.702018534774	0.035322380215	48.185273031126
299	1	0.806000000000	-0.549000000000	0.221000000000	1.645652937085	0.035387987088	46.503151846789
300	1	0.995000000000	0.055000000000	-0.085000000000	1.546876157500	0.035367339728	43.737419024971
301	1	0.804000000000	0.446000000000	-0.394000000000	1.746075678948	0.035322380215	49.432559989298
302	1	0.221000000000	0.806000000000	-0.549000000000	1.857122919076	0.035387987088	52.478908011403
303	1	-0.309000000000	0.751000000000	-0.583000000000	1.857122919076	0.035350898789	52.533966113163