ITEM: TIMESTEP
-1
ITEM: NUMBER OF ATOMS
372
ITEM: BOX BOUNDS
-1	1
-1	1
-1	1
ITEM: ATOMS index type x y z Vq Va Vq/a
0	-1	0.851000000000	0.000000000000	0.526000000000	0.000000000000	0.018436816540	0.000000000000
1	-1	0.526000000000	0.851000000000	0.000000000000	0.000000000000	0.018436816540	0.000000000000
2	-1	-0.526000000000	0.851000000000	0.000000000000	0.000000000000	0.018436816540	0.000000000000
3	-1	-0.851000000000	0.000000000000	0.526000000000	0.000000000000	0.018436816540	0.000000000000
4	-1	0.000000000000	-0.526000000000	0.851000000000	0.000000000000	0.018436816540	0.000000000000
5	-1	0.526000000000	-0.851000000000	0.000000000000	0.000000000000	0.018436816540	0.000000000000
6	-1	0.851000000000	0.000000000000	-0.526000000000	0.000000000000	0.018436816540	0.000000000000
7	-1	0.000000000000	0.526000000000	-0.851000000000	0.000000000000	0.018436816540	0.000000000000
8	-1	-0.851000000000	0.000000000000	-0.526000000000	0.000000000000	0.018436816540	0.000000000000
9	-1	-0.526000000000	-0.851000000000	0.000000000000	0.000000000000	0.018436816540	0.000000000000
10	-1	0.000000000000	-0.526000000000	-0.851000000000	0.000000000000	0.018436816540	0.000000000000
11	-1	0.685000000000	0.147000000000	0.713000000000	0.000000000000	0.032130021036	0.000000000000
12	-1	0.450000000000	0.848000000000	0.280000000000	0.000000000000	0.032144583920	0.000000000000
13	-1	-0.407000000000	0.874000000000	0.264000000000	0.000000000000	0.032128594000	0.000000000000
14	-1	-0.702000000000	0.189000000000	0.687000000000	0.000000000000	0.032126868799	0.000000000000
15	-1	-0.026000000000	-0.261000000000	0.965000000000	0.000000000000	0.032168047658	0.000000000000
16	-1	0.407000000000	-0.874000000000	0.264000000000	0.000000000000	0.032128594000	0.000000000000
17	-1	0.702000000000	-0.189000000000	0.687000000000	0.000000000000	0.032126868799	0.000000000000
18	-1	0.965000000000	-0.026000000000	-0.261000000000	0.000000000000	0.032168047658	0.000000000000
19	-1	0.713000000000	0.685000000000	0.147000000000	0.000000000000	0.032130021036	0.000000000000
20	-1	0.189000000000	0.687000000000	-0.702000000000	0.000000000000	0.032126868799	0.000000000000
21	-1	-0.261000000000	0.965000000000	-0.026000000000	0.000000000000	0.032168047658	0.000000000000
22	-1	-0.848000000000	0.280000000000	-0.450000000000	0.000000000000	0.032144583920	0.000000000000
23	-1	-0.874000000000	0.264000000000	0.407000000000	0.000000000000	0.032128594000	0.000000000000
24	-1	-0.713000000000	-0.685000000000	0.147000000000	0.000000000000	0.032130021036	0.000000000000
25	-1	-0.280000000000	-0.450000000000	0.848000000000	0.000000000000	0.032144583920	0.000000000000
26	-1	0.147000000000	-0.713000000000	-0.685000000000	0.000000000000	0.032130021036	0.000000000000
27	-1	0.848000000000	-0.280000000000	-0.450000000000	0.000000000000	0.032144583920	0.000000000000
28	-1	0.264000000000	0.407000000000	-0.874000000000	0.000000000000	0.032128594000	0.000000000000
29	-1	-0.685000000000	0.147000000000	-0.713000000000	0.000000000000	0.032130021036	0.000000000000
30	-1	-0.687000000000	-0.702000000000	-0.189000000000	0.000000000000	0.032126868799	0.000000000000
31	-1	0.761000000000	-0.016000000000	0.648000000000	0.000000000000	0.027564870473	0.000000000000
32	-1	0.572000000000	0.808000000000	0.139000000000	0.000000000000	0.027529437220	0.000000000000
33	-1	-0.408000000000	0.910000000000	0.076000000000	0.000000000000	0.027575260792	0.000000000000
34	-1	-0.824000000000	0.149000000000	0.547000000000	0.000000000000	0.027502340699	0.000000000000
35	-1	-0.102000000000	-0.423000000000	0.900000000000	0.000000000000	0.027568618633	0.000000000000
36	-1	0.408000000000	-0.910000000000	0.076000000000	0.000000000000	0.027575260792	0.000000000000
37	-1	0.824000000000	-0.149000000000	0.547000000000	0.000000000000	0.027502340699	0.000000000000
38	-1	0.900000000000	-0.102000000000	-0.423000000000	0.000000000000	0.027568618633	0.000000000000
39	-1	0.648000000000	0.761000000000	-0.016000000000	0.000000000000	0.027564870473	0.000000000000
40	-1	0.149000000000	0.547000000000	-0.824000000000	0.000000000000	0.027502340699	0.000000000000
41	-1	-0.423000000000	0.900000000000	-0.102000000000	0.000000000000	0.027568618633	0.000000000000
42	-1	-0.808000000000	0.139000000000	-0.572000000000	0.000000000000	0.027529437220	0.000000000000
43	-1	-0.910000000000	0.076000000000	0.408000000000	0.000000000000	0.027575260792	0.000000000000
44	-1	-0.648000000000	-0.761000000000	-0.016000000000	0.000000000000	0.027564870473	0.000000000000
45	-1	-0.139000000000	-0.572000000000	0.808000000000	0.000000000000	0.027529437220	0.000000000000
46	-1	-0.016000000000	-0.648000000000	-0.761000000000	0.000000000000	0.027564870473	0.000000000000
47	-1	0.808000000000	-0.139000000000	-0.572000000000	0.000000000000	0.027529437220	0.000000000000
48	-1	0.076000000000	0.408000000000	-0.910000000000	0.000000000000	0.027575260792	0.000000000000
49	-1	-0.761000000000	-0.016000000000	-0.648000000000	0.000000000000	0.027564870473	0.000000000000
50	-1	-0.547000000000	-0.824000000000	-0.149000000000	0.000000000000	0.027502340699	0.000000000000
51	-1	0.412000000000	0.305000000000	0.859000000000	0.000000000000	0.035355553908	0.000000000000
52	-1	0.309000000000	0.751000000000	0.583000000000	0.000000000000	0.035350898789	0.000000000000
53	-1	-0.221000000000	0.806000000000	0.549000000000	0.000000000000	0.035387987088	0.000000000000
54	-1	-0.446000000000	0.394000000000	0.804000000000	0.000000000000	0.035322380215	0.000000000000
55	-1	-0.055000000000	0.085000000000	0.995000000000	0.000000000000	0.035367339728	0.000000000000
56	-1	0.221000000000	-0.806000000000	0.549000000000	0.000000000000	0.035387987088	0.000000000000
57	-1	0.446000000000	-0.394000000000	0.804000000000	0.000000000000	0.035322380215	0.000000000000
58	-1	0.995000000000	-0.055000000000	0.085000000000	0.000000000000	0.035367339728	0.000000000000
59	-1	0.859000000000	0.412000000000	0.305000000000	0.000000000000	0.035355553908	0.000000000000
60	-1	0.394000000000	0.804000000000	-0.446000000000	0.000000000000	0.035322380215	0.000000000000
61	-1	0.085000000000	0.995000000000	-0.055000000000	0.000000000000	0.035367339728	0.000000000000
62	-1	-0.751000000000	0.583000000000	-0.309000000000	0.000000000000	0.035350898789	0.000000000000
63	-1	-0.806000000000	0.549000000000	0.221000000000	0.000000000000	0.035387987088	0.000000000000
64	-1	-0.859000000000	-0.412000000000	0.305000000000	0.000000000000	0.035355553908	0.000000000000
65	-1	-0.583000000000	-0.309000000000	0.751000000000	0.000000000000	0.035350898789	0.000000000000
66	-1	0.305000000000	-0.859000000000	-0.412000000000	0.000000000000	0.035355553908	0.000000000000
67	-1	0.751000000000	-0.583000000000	-0.309000000000	0.000000000000	0.035350898789	0.000000000000
68	-1	0.549000000000	0.221000000000	-0.806000000000	0.000000000000	0.035387987088	0.000000000000
69	-1	-0.412000000000	0.305000000000	-0.859000000000	0.000000000000	0.035355553908	0.000000000000
70	-1	-0.804000000000	-0.446000000000	-0.394000000000	0.000000000000	0.035322380215	0.000000000000
71	-1	0.533000000000	0.139000000000	0.835000000000	0.000000000000	0.036302988869	0.000000000000
72	-1	0.470000000000	0.759000000000	0.451000000000	0.000000000000	0.036372252023	0.000000000000
73	-1	-0.243000000000	0.899000000000	0.365000000000	0.000000000000	0.036265964996	0.000000000000
74	-1	-0.620000000000	0.366000000000	0.694000000000	0.000000000000	0.036304882832	0.000000000000
75	-1	-0.140000000000	-0.104000000000	0.985000000000	0.000000000000	0.036298811695	0.000000000000
76	-1	0.243000000000	-0.899000000000	0.365000000000	0.000000000000	0.036265964996	0.000000000000
77	-1	0.620000000000	-0.366000000000	0.694000000000	0.000000000000	0.036304882832	0.000000000000
78	-1	0.985000000000	-0.140000000000	-0.104000000000	0.000000000000	0.036298811695	0.000000000000
79	-1	0.835000000000	0.533000000000	0.139000000000	0.000000000000	0.036302988869	0.000000000000
80	-1	0.366000000000	0.694000000000	-0.620000000000	0.000000000000	0.036304882832	0.000000000000
81	-1	-0.104000000000	0.985000000000	-0.140000000000	0.000000000000	0.036298811695	0.000000000000
82	-1	-0.759000000000	0.451000000000	-0.470000000000	0.000000000000	0.036372252023	0.000000000000
83	-1	-0.899000000000	0.365000000000	0.243000000000	0.000000000000	0.036265964996	0.000000000000
84	-1	-0.835000000000	-0.533000000000	0.139000000000	0.000000000000	0.036302988869	0.000000000000
85	-1	-0.451000000000	-0.470000000000	0.759000000000	0.000000000000	0.036372252023	0.000000000000
86	-1	0.139000000000	-0.835000000000	-0.533000000000	0.000000000000	0.036302988869	0.000000000000
87	-1	0.759000000000	-0.451000000000	-0.470000000000	0.000000000000	0.036372252023	0.000000000000
88	-1	0.365000000000	0.243000000000	-0.899000000000	0.000000000000	0.036265964996	0.000000000000
89	-1	-0.533000000000	0.139000000000	-0.835000000000	0.000000000000	0.036302988869	0.000000000000
90	-1	-0.694000000000	-0.620000000000	-0.366000000000	0.000000000000	0.036304882832	0.000000000000
91	-1	0.631000000000	-0.034000000000	0.775000000000	0.000000000000	0.034180186192	0.000000000000
92	-1	0.610000000000	0.733000000000	0.300000000000	0.000000000000	0.033982267399	0.000000000000
93	-1	-0.255000000000	0.953000000000	0.165000000000	0.000000000000	0.034091898376	0.000000000000
94	-1	-0.767000000000	0.321000000000	0.555000000000	0.000000000000	0.034054931216	0.000000000000
95	-1	-0.220000000000	-0.288000000000	0.932000000000	0.000000000000	0.034092016455	0.000000000000
96	-1	0.255000000000	-0.953000000000	0.165000000000	0.000000000000	0.034091898376	0.000000000000
97	-1	0.767000000000	-0.321000000000	0.555000000000	0.000000000000	0.034054931216	0.000000000000
98	-1	0.932000000000	-0.220000000000	-0.288000000000	0.000000000000	0.034092016455	0.000000000000
99	-1	0.775000000000	0.631000000000	-0.034000000000	0.000000000000	0.034180186192	0.000000000000
100	-1	0.321000000000	0.555000000000	-0.767000000000	0.000000000000	0.034054931216	0.000000000000
101	-1	-0.288000000000	0.932000000000	-0.220000000000	0.000000000000	0.034092016455	0.000000000000
102	-1	-0.733000000000	0.300000000000	-0.610000000000	0.000000000000	0.033982267399	0.000000000000
103	-1	-0.953000000000	0.165000000000	0.255000000000	0.000000000000	0.034091898376	0.000000000000
104	-1	-0.775000000000	-0.631000000000	-0.034000000000	0.000000000000	0.034180186192	0.000000000000
105	-1	-0.300000000000	-0.610000000000	0.733000000000	0.000000000000	0.033982267399	0.000000000000
106	-1	-0.034000000000	-0.775000000000	-0.631000000000	0.000000000000	0.034180186192	0.000000000000
107	-1	0.733000000000	-0.300000000000	-0.610000000000	0.000000000000	0.033982267399	0.000000000000
108	-1	0.165000000000	0.255000000000	-0.953000000000	0.000000000000	0.034091898376	0.000000000000
109	-1	-0.631000000000	-0.034000000000	-0.775000000000	0.000000000000	0.034180186192	0.000000000000
110	-1	-0.555000000000	-0.767000000000	-0.321000000000	0.000000000000	0.034054931216	0.000000000000
111	-1	0.000000000000	0.526000000000	0.851000000000	0.000000000000	0.018436816540	0.000000000000
112	-1	0.102000000000	0.423000000000	0.900000000000	0.000000000000	0.027568618633	0.000000000000
113	-1	0.139000000000	0.572000000000	0.808000000000	0.000000000000	0.027529437220	0.000000000000
114	-1	-0.016000000000	0.648000000000	0.761000000000	0.000000000000	0.027564870473	0.000000000000
115	-1	-0.149000000000	0.547000000000	0.824000000000	0.000000000000	0.027502340699	0.000000000000
116	-1	-0.076000000000	0.408000000000	0.910000000000	0.000000000000	0.027575260792	0.000000000000
117	-1	0.016000000000	-0.648000000000	0.761000000000	0.000000000000	0.027564870473	0.000000000000
118	-1	0.149000000000	-0.547000000000	0.824000000000	0.000000000000	0.027502340699	0.000000000000
119	-1	0.910000000000	-0.076000000000	0.408000000000	0.000000000000	0.027575260792	0.000000000000
120	-1	0.900000000000	0.102000000000	0.423000000000	0.000000000000	0.027568618633	0.000000000000
121	-1	0.547000000000	0.824000000000	-0.149000000000	0.000000000000	0.027502340699	0.000000000000
122	-1	0.408000000000	0.910000000000	-0.076000000000	0.000000000000	0.027575260792	0.000000000000
123	-1	-0.572000000000	0.808000000000	-0.139000000000	0.000000000000	0.027529437220	0.000000000000
124	-1	-0.648000000000	0.761000000000	0.016000000000	0.000000000000	0.027564870473	0.000000000000
125	-1	-0.900000000000	-0.102000000000	0.423000000000	0.000000000000	0.027568618633	0.000000000000
126	-1	-0.808000000000	-0.139000000000	0.572000000000	0.000000000000	0.027529437220	0.000000000000
127	-1	0.423000000000	-0.900000000000	-0.102000000000	0.000000000000	0.027568618633	0.000000000000
128	-1	0.572000000000	-0.808000000000	-0.139000000000	0.000000000000	0.027529437220	0.000000000000
129	-1	0.761000000000	0.016000000000	-0.648000000000	0.000000000000	0.027564870473	0.000000000000
130	-1	-0.102000000000	0.423000000000	-0.900000000000	0.000000000000	0.027568618633	0.000000000000
131	-1	-0.824000000000	-0.149000000000	-0.547000000000	0.000000000000	0.027502340699	0.000000000000
132	-1	0.220000000000	0.288000000000	0.932000000000	0.000000000000	0.034092016455	0.000000000000
133	-1	0.300000000000	0.610000000000	0.733000000000	0.000000000000	0.033982267399	0.000000000000
134	-1	-0.034000000000	0.775000000000	0.631000000000	0.000000000000	0.034180186192	0.000000000000
135	-1	-0.321000000000	0.555000000000	0.767000000000	0.000000000000	0.034054931216	0.000000000000
136	-1	-0.165000000000	0.255000000000	0.953000000000	0.000000000000	0.034091898376	0.000000000000
137	-1	0.034000000000	-0.775000000000	0.631000000000	0.000000000000	0.034180186192	0.000000000000
138	-1	0.321000000000	-0.555000000000	0.767000000000	0.000000000000	0.034054931216	0.000000000000
139	-1	0.953000000000	-0.165000000000	0.255000000000	0.000000000000	0.034091898376	0.000000000000
140	-1	0.932000000000	0.220000000000	0.288000000000	0.000000000000	0.034092016455	0.000000000000
141	-1	0.555000000000	0.767000000000	-0.321000000000	0.000000000000	0.034054931216	0.000000000000
142	-1	0.255000000000	0.953000000000	-0.165000000000	0.000000000000	0.034091898376	0.000000000000
143	-1	-0.610000000000	0.733000000000	-0.300000000000	0.000000000000	0.033982267399	0.000000000000
144	-1	-0.775000000000	0.631000000000	0.034000000000	0.000000000000	0.034180186192	0.000000000000
145	-1	-0.932000000000	-0.220000000000	0.288000000000	0.000000000000	0.034092016455	0.000000000000
146	-1	-0.733000000000	-0.300000000000	0.610000000000	0.000000000000	0.033982267399	0.000000000000
147	-1	0.288000000000	-0.932000000000	-0.220000000000	0.000000000000	0.034092016455	0.000000000000
148	-1	0.610000000000	-0.733000000000	-0.300000000000	0.000000000000	0.033982267399	0.000000000000
149	-1	0.631000000000	0.034000000000	-0.775000000000	0.000000000000	0.034180186192	0.000000000000
150	-1	-0.220000000000	0.288000000000	-0.932000000000	0.000000000000	0.034092016455	0.000000000000
151	-1	-0.767000000000	-0.321000000000	-0.555000000000	0.000000000000	0.034054931216	0.000000000000
152	-1	0.344000000000	0.124000000000	0.931000000000	0.000000000000	0.038509148012	0.000000000000
153	-1	0.471000000000	0.628000000000	0.619000000000	0.000000000000	0.038653495266	0.000000000000
154	-1	-0.053000000000	0.887000000000	0.459000000000	0.000000000000	0.038599707617	0.000000000000
155	-1	-0.504000000000	0.542000000000	0.672000000000	0.000000000000	0.038572414466	0.000000000000
156	-1	-0.258000000000	0.071000000000	0.963000000000	0.000000000000	0.038558646066	0.000000000000
157	-1	0.053000000000	-0.887000000000	0.459000000000	0.000000000000	0.038599707617	0.000000000000
158	-1	0.504000000000	-0.542000000000	0.672000000000	0.000000000000	0.038572414466	0.000000000000
159	-1	0.963000000000	-0.258000000000	0.071000000000	0.000000000000	0.038558646066	0.000000000000
160	-1	0.931000000000	0.344000000000	0.124000000000	0.000000000000	0.038509148012	0.000000000000
161	-1	0.542000000000	0.672000000000	-0.504000000000	0.000000000000	0.038572414466	0.000000000000
162	-1	0.071000000000	0.963000000000	-0.258000000000	0.000000000000	0.038558646066	0.000000000000
163	-1	-0.628000000000	0.619000000000	-0.471000000000	0.000000000000	0.038653495266	0.000000000000
164	-1	-0.887000000000	0.459000000000	0.053000000000	0.000000000000	0.038599707617	0.000000000000
165	-1	-0.931000000000	-0.344000000000	0.124000000000	0.000000000000	0.038509148012	0.000000000000
166	-1	-0.619000000000	-0.471000000000	0.628000000000	0.000000000000	0.038653495266	0.000000000000
167	-1	0.124000000000	-0.931000000000	-0.344000000000	0.000000000000	0.038509148012	0.000000000000
168	-1	0.628000000000	-0.619000000000	-0.471000000000	0.000000000000	0.038653495266	0.000000000000
169	-1	0.459000000000	0.053000000000	-0.887000000000	0.000000000000	0.038599707617	0.000000000000
170	-1	-0.344000000000	0.124000000000	-0.931000000000	0.000000000000	0.038509148012	0.000000000000
171	-1	-0.672000000000	-0.504000000000	-0.542000000000	0.000000000000	0.038572414466	0.000000000000
172	-1	0.459000000000	-0.053000000000	0.887000000000	0.000000000000	0.038599707617	0.000000000000
173	-1	0.628000000000	0.619000000000	0.471000000000	0.000000000000	0.038653495266	0.000000000000
174	-1	-0.071000000000	0.963000000000	0.258000000000	0.000000000000	0.038558646066	0.000000000000
175	-1	-0.672000000000	0.504000000000	0.542000000000	0.000000000000	0.038572414466	0.000000000000
176	-1	-0.344000000000	-0.124000000000	0.931000000000	0.000000000000	0.038509148012	0.000000000000
177	-1	0.071000000000	-0.963000000000	0.258000000000	0.000000000000	0.038558646066	0.000000000000
178	-1	0.672000000000	-0.504000000000	0.542000000000	0.000000000000	0.038572414466	0.000000000000
179	-1	0.931000000000	-0.344000000000	-0.124000000000	0.000000000000	0.038509148012	0.000000000000
180	-1	0.887000000000	0.459000000000	-0.053000000000	0.000000000000	0.038599707617	0.000000000000
181	-1	0.504000000000	0.542000000000	-0.672000000000	0.000000000000	0.038572414466	0.000000000000
182	-1	-0.124000000000	0.931000000000	-0.344000000000	0.000000000000	0.038509148012	0.000000000000
183	-1	-0.619000000000	0.471000000000	-0.628000000000	0.000000000000	0.038653495266	0.000000000000
184	-1	-0.963000000000	0.258000000000	0.071000000000	0.000000000000	0.038558646066	0.000000000000
185	-1	-0.887000000000	-0.459000000000	-0.053000000000	0.000000000000	0.038599707617	0.000000000000
186	-1	-0.471000000000	-0.628000000000	0.619000000000	0.000000000000	0.038653495266	0.000000000000
187	-1	-0.053000000000	-0.887000000000	-0.459000000000	0.000000000000	0.038599707617	0.000000000000
188	-1	0.619000000000	-0.471000000000	-0.628000000000	0.000000000000	0.038653495266	0.000000000000
189	-1	0.258000000000	0.071000000000	-0.963000000000	0.000000000000	0.038558646066	0.000000000000
190	-1	-0.459000000000	-0.053000000000	-0.887000000000	0.000000000000	0.038599707617	0.000000000000
191	-1	-0.542000000000	-0.672000000000	-0.504000000000	0.000000000000	0.038572414466	0.000000000000
192	-1	0.549000000000	-0.221000000000	0.806000000000	0.000000000000	0.035387987088	0.000000000000
193	-1	0.751000000000	0.583000000000	0.309000000000	0.000000000000	0.035350898789	0.000000000000
194	-1	-0.085000000000	0.995000000000	0.055000000000	0.000000000000	0.035367339728	0.000000000000
195	-1	-0.804000000000	0.446000000000	0.394000000000	0.000000000000	0.035322380215	0.000000000000
196	-1	-0.412000000000	-0.305000000000	0.859000000000	0.000000000000	0.035355553908	0.000000000000
197	-1	0.085000000000	-0.995000000000	0.055000000000	0.000000000000	0.035367339728	0.000000000000
198	-1	0.804000000000	-0.446000000000	0.394000000000	0.000000000000	0.035322380215	0.000000000000
199	-1	0.859000000000	-0.412000000000	-0.305000000000	0.000000000000	0.035355553908	0.000000000000
200	-1	0.806000000000	0.549000000000	-0.221000000000	0.000000000000	0.035387987088	0.000000000000
201	-1	0.446000000000	0.394000000000	-0.804000000000	0.000000000000	0.035322380215	0.000000000000
202	-1	-0.305000000000	0.859000000000	-0.412000000000	0.000000000000	0.035355553908	0.000000000000
203	-1	-0.583000000000	0.309000000000	-0.751000000000	0.000000000000	0.035350898789	0.000000000000
204	-1	-0.995000000000	0.055000000000	0.085000000000	0.000000000000	0.035367339728	0.000000000000
205	-1	-0.806000000000	-0.549000000000	-0.221000000000	0.000000000000	0.035387987088	0.000000000000
206	-1	-0.309000000000	-0.751000000000	0.583000000000	0.000000000000	0.035350898789	0.000000000000
207	-1	-0.221000000000	-0.806000000000	-0.549000000000	0.000000000000	0.035387987088	0.000000000000
208	-1	0.583000000000	-0.309000000000	-0.751000000000	0.000000000000	0.035350898789	0.000000000000
209	-1	0.055000000000	0.085000000000	-0.995000000000	0.000000000000	0.035367339728	0.000000000000
210	-1	-0.549000000000	-0.221000000000	-0.806000000000	0.000000000000	0.035387987088	0.000000000000
211	-1	-0.394000000000	-0.804000000000	-0.446000000000	0.000000000000	0.035322380215	0.000000000000
212	-1	0.026000000000	0.261000000000	0.965000000000	0.000000000000	0.032168047658	0.000000000000
213	-1	0.280000000000	0.450000000000	0.848000000000	0.000000000000	0.032144583920	0.000000000000
214	-1	0.147000000000	0.713000000000	0.685000000000	0.000000000000	0.032130021036	0.000000000000
215	-1	-0.189000000000	0.687000000000	0.702000000000	0.000000000000	0.032126868799	0.000000000000
216	-1	-0.264000000000	0.407000000000	0.874000000000	0.000000000000	0.032128594000	0.000000000000
217	-1	-0.147000000000	-0.713000000000	0.685000000000	0.000000000000	0.032130021036	0.000000000000
218	-1	0.189000000000	-0.687000000000	0.702000000000	0.000000000000	0.032126868799	0.000000000000
219	-1	0.874000000000	-0.264000000000	0.407000000000	0.000000000000	0.032128594000	0.000000000000
220	-1	0.965000000000	0.026000000000	0.261000000000	0.000000000000	0.032168047658	0.000000000000
221	-1	0.687000000000	0.702000000000	-0.189000000000	0.000000000000	0.032126868799	0.000000000000
222	-1	0.407000000000	0.874000000000	-0.264000000000	0.000000000000	0.032128594000	0.000000000000
223	-1	-0.450000000000	0.848000000000	-0.280000000000	0.000000000000	0.032144583920	0.000000000000
224	-1	-0.713000000000	0.685000000000	-0.147000000000	0.000000000000	0.032130021036	0.000000000000
225	-1	-0.965000000000	-0.026000000000	0.261000000000	0.000000000000	0.032168047658	0.000000000000
226	-1	-0.848000000000	-0.280000000000	0.450000000000	0.000000000000	0.032144583920	0.000000000000
227	-1	0.261000000000	-0.965000000000	-0.026000000000	0.000000000000	0.032168047658	0.000000000000
228	-1	0.450000000000	-0.848000000000	-0.280000000000	0.000000000000	0.032144583920	0.000000000000
229	-1	0.685000000000	-0.147000000000	-0.713000000000	0.000000000000	0.032130021036	0.000000000000
230	-1	-0.026000000000	0.261000000000	-0.965000000000	0.000000000000	0.032168047658	0.000000000000
231	-1	-0.702000000000	-0.189000000000	-0.687000000000	0.000000000000	0.032126868799	0.000000000000
232	-1	0.140000000000	0.104000000000	0.985000000000	0.000000000000	0.036298811695	0.000000000000
233	-1	0.451000000000	0.470000000000	0.759000000000	0.000000000000	0.036372252023	0.000000000000
234	-1	0.139000000000	0.835000000000	0.533000000000	0.000000000000	0.036302988869	0.000000000000
235	-1	-0.366000000000	0.694000000000	0.620000000000	0.000000000000	0.036304882832	0.000000000000
236	-1	-0.365000000000	0.243000000000	0.899000000000	0.000000000000	0.036265964996	0.000000000000
237	-1	-0.139000000000	-0.835000000000	0.533000000000	0.000000000000	0.036302988869	0.000000000000
238	-1	0.366000000000	-0.694000000000	0.620000000000	0.000000000000	0.036304882832	0.000000000000
239	-1	0.899000000000	-0.365000000000	0.243000000000	0.000000000000	0.036265964996	0.000000000000
240	-1	0.985000000000	0.140000000000	0.104000000000	0.000000000000	0.036298811695	0.000000000000
241	-1	0.694000000000	0.620000000000	-0.366000000000	0.000000000000	0.036304882832	0.000000000000
242	-1	0.243000000000	0.899000000000	-0.365000000000	0.000000000000	0.036265964996	0.000000000000
243	-1	-0.470000000000	0.759000000000	-0.451000000000	0.000000000000	0.036372252023	0.000000000000
244	-1	-0.835000000000	0.533000000000	-0.139000000000	0.000000000000	0.036302988869	0.000000000000
245	-1	-0.985000000000	-0.140000000000	0.104000000000	0.000000000000	0.036298811695	0.000000000000
246	-1	-0.759000000000	-0.451000000000	0.470000000000	0.000000000000	0.036372252023	0.000000000000
247	-1	0.104000000000	-0.985000000000	-0.140000000000	0.000000000000	0.036298811695	0.000000000000
248	-1	0.470000000000	-0.759000000000	-0.451000000000	0.000000000000	0.036372252023	0.000000000000
249	-1	0.533000000000	-0.139000000000	-0.835000000000	0.000000000000	0.036302988869	0.000000000000
250	-1	-0.140000000000	0.104000000000	-0.985000000000	0.000000000000	0.036298811695	0.000000000000
251	-1	-0.620000000000	-0.366000000000	-0.694000000000	0.000000000000	0.036304882832	0.000000000000
252	-1	0.258000000000	-0.071000000000	0.963000000000	0.000000000000	0.038558646066	0.000000000000
253	-1	0.619000000000	0.471000000000	0.628000000000	0.000000000000	0.038653495266	0.000000000000
254	-1	0.124000000000	0.931000000000	0.344000000000	0.000000000000	0.038509148012	0.000000000000
255	-1	-0.542000000000	0.672000000000	0.504000000000	0.000000000000	0.038572414466	0.000000000000
256	-1	-0.459000000000	0.053000000000	0.887000000000	0.000000000000	0.038599707617	0.000000000000
257	-1	-0.124000000000	-0.931000000000	0.344000000000	0.000000000000	0.038509148012	0.000000000000
258	-1	0.542000000000	-0.672000000000	0.504000000000	0.000000000000	0.038572414466	0.000000000000
259	-1	0.887000000000	-0.459000000000	0.053000000000	0.000000000000	0.038599707617	0.000000000000
260	-1	0.963000000000	0.258000000000	-0.071000000000	0.000000000000	0.038558646066	0.000000000000
261	-1	0.672000000000	0.504000000000	-0.542000000000	0.000000000000	0.038572414466	0.000000000000
262	-1	0.053000000000	0.887000000000	-0.459000000000	0.000000000000	0.038599707617	0.000000000000
263	-1	-0.471000000000	0.628000000000	-0.619000000000	0.000000000000	0.038653495266	0.000000000000
264	-1	-0.931000000000	0.344000000000	-0.124000000000	0.000000000000	0.038509148012	0.000000000000
265	-1	-0.963000000000	-0.258000000000	-0.071000000000	0.000000000000	0.038558646066	0.000000000000
266	-1	-0.628000000000	-0.619000000000	0.471000000000	0.000000000000	0.038653495266	0.000000000000
267	-1	-0.071000000000	-0.963000000000	-0.258000000000	0.000000000000	0.038558646066	0.000000000000
268	-1	0.471000000000	-0.628000000000	-0.619000000000	0.000000000000	0.038653495266	0.000000000000
269	-1	0.344000000000	-0.124000000000	-0.931000000000	0.000000000000	0.038509148012	0.000000000000
270	-1	-0.258000000000	-0.071000000000	-0.963000000000	0.000000000000	0.038558646066	0.000000000000
271	-1	-0.504000000000	-0.542000000000	-0.672000000000	0.000000000000	0.038572414466	0.000000000000
272	-1	0.365000000000	-0.243000000000	0.899000000000	0.000000000000	0.036265964996	0.000000000000
273	-1	0.759000000000	0.451000000000	0.470000000000	0.000000000000	0.036372252023	0.000000000000
274	-1	0.104000000000	0.985000000000	0.140000000000	0.000000000000	0.036298811695	0.000000000000
275	-1	-0.694000000000	0.620000000000	0.366000000000	0.000000000000	0.036304882832	0.000000000000
276	-1	-0.533000000000	-0.139000000000	0.835000000000	0.000000000000	0.036302988869	0.000000000000
277	-1	-0.104000000000	-0.985000000000	0.140000000000	0.000000000000	0.036298811695	0.000000000000
278	-1	0.694000000000	-0.620000000000	0.366000000000	0.000000000000	0.036304882832	0.000000000000
279	-1	0.835000000000	-0.533000000000	-0.139000000000	0.000000000000	0.036302988869	0.000000000000
280	-1	0.899000000000	0.365000000000	-0.243000000000	0.000000000000	0.036265964996	0.000000000000
281	-1	0.620000000000	0.366000000000	-0.694000000000	0.000000000000	0.036304882832	0.000000000000
282	-1	-0.139000000000	0.835000000000	-0.533000000000	0.000000000000	0.036302988869	0.000000000000
283	-1	-0.451000000000	0.470000000000	-0.759000000000	0.000000000000	0.036372252023	0.000000000000
284	-1	-0.985000000000	0.140000000000	-0.104000000000	0.000000000000	0.036298811695	0.000000000000
285	-1	-0.899000000000	-0.365000000000	-0.243000000000	0.000000000000	0.036265964996	0.000000000000
286	-1	-0.470000000000	-0.759000000000	0.451000000000	0.000000000000	0.036372252023	0.000000000000
287	-1	-0.243000000000	-0.899000000000	-0.365000000000	0.000000000000	0.036265964996	0.000000000000
288	-1	0.451000000000	-0.470000000000	-0.759000000000	0.000000000000	0.036372252023	0.000000000000
289	-1	0.140000000000	-0.104000000000	-0.985000000000	0.000000000000	0.036298811695	0.000000000000
290	-1	-0.365000000000	-0.243000000000	-0.899000000000	0.000000000000	0.036265964996	0.000000000000
291	-1	-0.366000000000	-0.694000000000	-0.620000000000	0.000000000000	0.036304882832	0.000000000000
292	-1	0.055000000000	-0.085000000000	0.995000000000	0.000000000000	0.035367339728	0.000000000000
293	-1	0.583000000000	0.309000000000	0.751000000000	0.000000000000	0.035350898789	0.000000000000
294	-1	0.305000000000	0.859000000000	0.412000000000	0.000000000000	0.035355553908	0.000000000000
295	-1	-0.394000000000	0.804000000000	0.446000000000	0.000000000000	0.035322380215	0.000000000000
296	-1	-0.549000000000	0.221000000000	0.806000000000	0.000000000000	0.035387987088	0.000000000000
297	-1	-0.305000000000	-0.859000000000	0.412000000000	0.000000000000	0.035355553908	0.000000000000
298	-1	0.394000000000	-0.804000000000	0.446000000000	0.000000000000	0.035322380215	0.000000000000
299	-1	0.806000000000	-0.549000000000	0.221000000000	0.000000000000	0.035387987088	0.000000000000
300	-1	0.995000000000	0.055000000000	-0.085000000000	0.000000000000	0.035367339728	0.000000000000
301	-1	0.804000000000	0.446000000000	-0.394000000000	0.000000000000	0.035322380215	0.000000000000
302	-1	0.221000000000	0.806000000000	-0.549000000000	0.000000000000	0.035387987088	0.000000000000
303	-1	-0.309000000000	0.751000000000	-0.583000000000	0.000000000000	0.035350898789	0.000000000000