ITEM: TIMESTEP
-1
ITEM: NUMBER OF ATOMS
372
ITEM: BOX BOUNDS
-1	1
-1	1
-1	1
ITEM: ATOMS index type x y z Vq Va Vq/a
0	-1	0.851000000000	0.000000000000	0.526000000000	0.000000000000	0.018436816540	0.000000000000
1	1	0.526000000000	0.851000000000	0.000000000000	1.856460020186	0.018436816540	100.693089620307
2	1	-0.526000000000	0.851000000000	0.000000000000	1.858436986061	0.018436816540	100.800318862996
3	-1	-0.851000000000	0.000000000000	0.526000000000	0.000000000000	0.018436816540	0.000000000000
4	-1	0.000000000000	-0.526000000000	0.851000000000	0.000000000000	0.018436816540	0.000000000000
5	-1	0.526000000000	-0.851000000000	0.000000000000	0.000000000000	0.018436816540	0.000000000000
6	1	0.851000000000	0.000000000000	-0.526000000000	1.747949432643	0.018436816540	94.807551446931
7	1	0.000000000000	0.526000000000	-0.851000000000	1.546944864181	0.018436816540	83.905204611438
8	1	-0.851000000000	0.000000000000	-0.526000000000	1.645652937085	0.018436816540	89.259061264999
9	-1	-0.526000000000	-0.851000000000	0.000000000000	0.000000000000	0.018436816540	0.000000000000
10	1	0.000000000000	-0.526000000000	-0.851000000000	1.547646014611	0.018436816540	83.943234519070
11	-1	0.685000000000	0.147000000000	0.713000000000	0.000000000000	0.032130021036	0.000000000000
12	-1	0.450000000000	0.848000000000	0.280000000000	0.000000000000	0.032144583920	0.000000000000
13	-1	-0.407000000000	0.874000000000	0.264000000000	0.000000000000	0.032128594000	0.000000000000
14	-1	-0.702000000000	0.189000000000	0.687000000000	0.000000000000	0.032126868799	0.000000000000
15	-1	-0.026000000000	-0.261000000000	0.965000000000	0.000000000000	0.032168047658	0.000000000000
16	-1	0.407000000000	-0.874000000000	0.264000000000	0.000000000000	0.032128594000	0.000000000000
17	-1	0.702000000000	-0.189000000000	0.687000000000	0.000000000000	0.032126868799	0.000000000000
18	1	0.965000000000	-0.026000000000	-0.261000000000	1.641402196507	0.032168047658	51.025856898578
19	-1	0.713000000000	0.685000000000	0.147000000000	0.000000000000	0.032130021036	0.000000000000
20	1	0.189000000000	0.687000000000	-0.702000000000	1.700645468068	0.032126868799	52.935300938704
21	1	-0.261000000000	0.965000000000	-0.026000000000	1.858436986061	0.032168047658	57.772762768055
22	1	-0.848000000000	0.280000000000	-0.450000000000	1.636123859552	0.032144583920	50.898896797805
23	-1	-0.874000000000	0.264000000000	0.407000000000	0.000000000000	0.032128594000	0.000000000000
24	-1	-0.713000000000	-0.685000000000	0.147000000000	0.000000000000	0.032130021036	0.000000000000
25	-1	-0.280000000000	-0.450000000000	0.848000000000	0.000000000000	0.032144583920	0.000000000000
26	1	0.147000000000	-0.713000000000	-0.685000000000	1.700645468068	0.032130021036	52.930107519823
27	1	0.848000000000	-0.280000000000	-0.450000000000	1.641402196507	0.032144583920	51.063102903809
28	1	0.264000000000	0.407000000000	-0.874000000000	1.547646014611	0.032128594000	48.170362345391
29	1	-0.685000000000	0.147000000000	-0.713000000000	1.702018534774	0.032130021036	52.972842216590
30	1	-0.687000000000	-0.702000000000	-0.189000000000	1.636123859552	0.032126868799	50.926963029386
31	-1	0.761000000000	-0.016000000000	0.648000000000	0.000000000000	0.027564870473	0.000000000000
32	-1	0.572000000000	0.808000000000	0.139000000000	0.000000000000	0.027529437220	0.000000000000
33	-1	-0.408000000000	0.910000000000	0.076000000000	0.000000000000	0.027575260792	0.000000000000
34	-1	-0.824000000000	0.149000000000	0.547000000000	0.000000000000	0.027502340699	0.000000000000
35	-1	-0.102000000000	-0.423000000000	0.900000000000	0.000000000000	0.027568618633	0.000000000000
36	-1	0.408000000000	-0.910000000000	0.076000000000	0.000000000000	0.027575260792	0.000000000000
37	-1	0.824000000000	-0.149000000000	0.547000000000	0.000000000000	0.027502340699	0.000000000000
38	1	0.900000000000	-0.102000000000	-0.423000000000	1.645652937085	0.027568618633	59.692977693059
39	1	0.648000000000	0.761000000000	-0.016000000000	1.854076867034	0.027564870473	67.262310150854
40	1	0.149000000000	0.547000000000	-0.824000000000	1.325443312760	0.027502340699	48.193836562990
41	1	-0.423000000000	0.900000000000	-0.102000000000	1.861026667783	0.027568618633	67.505256340959
42	1	-0.808000000000	0.139000000000	-0.572000000000	1.747657129268	0.027529437220	63.483213089111
43	-1	-0.910000000000	0.076000000000	0.408000000000	0.000000000000	0.027575260792	0.000000000000
44	1	-0.648000000000	-0.761000000000	-0.016000000000	1.861026667783	0.027564870473	67.514435433139
45	-1	-0.139000000000	-0.572000000000	0.808000000000	0.000000000000	0.027529437220	0.000000000000
46	1	-0.016000000000	-0.648000000000	-0.761000000000	1.327149296355	0.027564870473	48.146400602435
47	1	0.808000000000	-0.139000000000	-0.572000000000	1.747858245137	0.027529437220	63.490518573306
48	1	0.076000000000	0.408000000000	-0.910000000000	1.546793095276	0.027575260792	56.093507399712
49	1	-0.761000000000	-0.016000000000	-0.648000000000	1.702242661980	0.027564870473	61.754059887130
50	1	-0.547000000000	-0.824000000000	-0.149000000000	1.854076867034	0.027502340699	67.415238844876
51	-1	0.412000000000	0.305000000000	0.859000000000	0.000000000000	0.035355553908	0.000000000000
52	-1	0.309000000000	0.751000000000	0.583000000000	0.000000000000	0.035350898789	0.000000000000
53	-1	-0.221000000000	0.806000000000	0.549000000000	0.000000000000	0.035387987088	0.000000000000
54	-1	-0.446000000000	0.394000000000	0.804000000000	0.000000000000	0.035322380215	0.000000000000
55	-1	-0.055000000000	0.085000000000	0.995000000000	0.000000000000	0.035367339728	0.000000000000
56	-1	0.221000000000	-0.806000000000	0.549000000000	0.000000000000	0.035387987088	0.000000000000
57	-1	0.446000000000	-0.394000000000	0.804000000000	0.000000000000	0.035322380215	0.000000000000
58	-1	0.995000000000	-0.055000000000	0.085000000000	0.000000000000	0.035367339728	0.000000000000
59	-1	0.859000000000	0.412000000000	0.305000000000	0.000000000000	0.035355553908	0.000000000000
60	1	0.394000000000	0.804000000000	-0.446000000000	1.645652937085	0.035322380215	46.589525594331
61	1	0.085000000000	0.995000000000	-0.055000000000	1.856460020186	0.035367339728	52.490801808722
62	1	-0.751000000000	0.583000000000	-0.309000000000	1.327149296355	0.035350898789	37.542165596929
63	-1	-0.806000000000	0.549000000000	0.221000000000	0.000000000000	0.035387987088	0.000000000000
64	-1	-0.859000000000	-0.412000000000	0.305000000000	0.000000000000	0.035355553908	0.000000000000
65	-1	-0.583000000000	-0.309000000000	0.751000000000	0.000000000000	0.035350898789	0.000000000000
66	1	0.305000000000	-0.859000000000	-0.412000000000	1.641402196507	0.035355553908	46.425582831304
67	1	0.751000000000	-0.583000000000	-0.309000000000	1.327329756757	0.035350898789	37.547270429016
68	1	0.549000000000	0.221000000000	-0.806000000000	1.327649552800	0.035387987088	37.516955952188
69	1	-0.412000000000	0.305000000000	-0.859000000000	1.546944864181	0.035355553908	43.753942257613
70	1	-0.804000000000	-0.446000000000	-0.394000000000	1.327149296355	0.035322380215	37.572476381054
71	-1	0.533000000000	0.139000000000	0.835000000000	0.000000000000	0.036302988869	0.000000000000
72	-1	0.470000000000	0.759000000000	0.451000000000	0.000000000000	0.036372252023	0.000000000000
73	-1	-0.243000000000	0.899000000000	0.365000000000	0.000000000000	0.036265964996	0.000000000000
74	-1	-0.620000000000	0.366000000000	0.694000000000	0.000000000000	0.036304882832	0.000000000000
75	-1	-0.140000000000	-0.104000000000	0.985000000000	0.000000000000	0.036298811695	0.000000000000
76	-1	0.243000000000	-0.899000000000	0.365000000000	0.000000000000	0.036265964996	0.000000000000
77	-1	0.620000000000	-0.366000000000	0.694000000000	0.000000000000	0.036304882832	0.000000000000
78	1	0.985000000000	-0.140000000000	-0.104000000000	1.858436986061	0.036298811695	51.198287196485
79	-1	0.835000000000	0.533000000000	0.139000000000	0.000000000000	0.036302988869	0.000000000000
80	1	0.366000000000	0.694000000000	-0.620000000000	1.700645468068	0.036304882832	46.843436348444
81	1	-0.104000000000	0.985000000000	-0.140000000000	1.856460020186	0.036298811695	51.143823543741
82	1	-0.759000000000	0.451000000000	-0.470000000000	1.641402196507	0.036372252023	45.127868229913
83	-1	-0.899000000000	0.365000000000	0.243000000000	0.000000000000	0.036265964996	0.000000000000
84	-1	-0.835000000000	-0.533000000000	0.139000000000	0.000000000000	0.036302988869	0.000000000000
85	-1	-0.451000000000	-0.470000000000	0.759000000000	0.000000000000	0.036372252023	0.000000000000
86	1	0.139000000000	-0.835000000000	-0.533000000000	1.746075678948	0.036302988869	48.097298138857
87	1	0.759000000000	-0.451000000000	-0.470000000000	1.639622360815	0.036372252023	45.078934342312
88	1	0.365000000000	0.243000000000	-0.899000000000	1.548775709143	0.036265964996	42.706038824535
89	1	-0.533000000000	0.139000000000	-0.835000000000	1.546793095276	0.036302988869	42.607871789048
90	1	-0.694000000000	-0.620000000000	-0.366000000000	1.327649552800	0.036304882832	36.569448769520
91	-1	0.631000000000	-0.034000000000	0.775000000000	0.000000000000	0.034180186192	0.000000000000
92	-1	0.610000000000	0.733000000000	0.300000000000	0.000000000000	0.033982267399	0.000000000000
93	-1	-0.255000000000	0.953000000000	0.165000000000	0.000000000000	0.034091898376	0.000000000000
94	-1	-0.767000000000	0.321000000000	0.555000000000	0.000000000000	0.034054931216	0.000000000000
95	-1	-0.220000000000	-0.288000000000	0.932000000000	0.000000000000	0.034092016455	0.000000000000
96	-1	0.255000000000	-0.953000000000	0.165000000000	0.000000000000	0.034091898376	0.000000000000
97	-1	0.767000000000	-0.321000000000	0.555000000000	0.000000000000	0.034054931216	0.000000000000
98	1	0.932000000000	-0.220000000000	-0.288000000000	1.327329756757	0.034092016455	38.933741526140
99	1	0.775000000000	0.631000000000	-0.034000000000	1.857122919076	0.034180186192	54.333317806497
100	1	0.321000000000	0.555000000000	-0.767000000000	1.325443312760	0.034054931216	38.920745555235
101	1	-0.288000000000	0.932000000000	-0.220000000000	1.636123859552	0.034092016455	47.991407657573
102	1	-0.733000000000	0.300000000000	-0.610000000000	1.747949432643	0.033982267399	51.437104303258
103	-1	-0.953000000000	0.165000000000	0.255000000000	0.000000000000	0.034091898376	0.000000000000
104	1	-0.775000000000	-0.631000000000	-0.034000000000	1.854076867034	0.034180186192	54.244200326986
105	-1	-0.300000000000	-0.610000000000	0.733000000000	0.000000000000	0.033982267399	0.000000000000
106	1	-0.034000000000	-0.775000000000	-0.631000000000	1.702242661980	0.034180186192	49.802030111801
107	1	0.733000000000	-0.300000000000	-0.610000000000	1.747657129268	0.033982267399	51.428502659008
108	1	0.165000000000	0.255000000000	-0.953000000000	0.887666354973	0.034091898376	26.037457497498
109	1	-0.631000000000	-0.034000000000	-0.775000000000	1.324138712811	0.034180186192	38.739950255332
110	1	-0.555000000000	-0.767000000000	-0.321000000000	1.327649552800	0.034054931216	38.985530300404
111	-1	0.000000000000	0.526000000000	0.851000000000	0.000000000000	0.018436816540	0.000000000000
112	-1	0.102000000000	0.423000000000	0.900000000000	0.000000000000	0.027568618633	0.000000000000
113	-1	0.139000000000	0.572000000000	0.808000000000	0.000000000000	0.027529437220	0.000000000000
114	-1	-0.016000000000	0.648000000000	0.761000000000	0.000000000000	0.027564870473	0.000000000000
115	-1	-0.149000000000	0.547000000000	0.824000000000	0.000000000000	0.027502340699	0.000000000000
116	-1	-0.076000000000	0.408000000000	0.910000000000	0.000000000000	0.027575260792	0.000000000000
117	-1	0.016000000000	-0.648000000000	0.761000000000	0.000000000000	0.027564870473	0.000000000000
118	-1	0.149000000000	-0.547000000000	0.824000000000	0.000000000000	0.027502340699	0.000000000000
119	-1	0.910000000000	-0.076000000000	0.408000000000	0.000000000000	0.027575260792	0.000000000000
120	-1	0.900000000000	0.102000000000	0.423000000000	0.000000000000	0.027568618633	0.000000000000
121	1	0.547000000000	0.824000000000	-0.149000000000	1.861026667783	0.027502340699	67.667937363347
122	1	0.408000000000	0.910000000000	-0.076000000000	1.854076867034	0.027575260792	67.236965808957
123	1	-0.572000000000	0.808000000000	-0.139000000000	1.857122919076	0.027529437220	67.459530837003
124	-1	-0.648000000000	0.761000000000	0.016000000000	0.000000000000	0.027564870473	0.000000000000
125	-1	-0.900000000000	-0.102000000000	0.423000000000	0.000000000000	0.027568618633	0.000000000000
126	-1	-0.808000000000	-0.139000000000	0.572000000000	0.000000000000	0.027529437220	0.000000000000
127	1	0.423000000000	-0.900000000000	-0.102000000000	1.854076867034	0.027568618633	67.253165336991
128	1	0.572000000000	-0.808000000000	-0.139000000000	1.856460020186	0.027529437220	67.435451198713
129	1	0.761000000000	0.016000000000	-0.648000000000	1.702018534774	0.027564870473	61.745928987107
130	1	-0.102000000000	0.423000000000	-0.900000000000	1.546876157500	0.027568618633	56.110035040046
131	1	-0.824000000000	-0.149000000000	-0.547000000000	1.747858245137	0.027502340699	63.553072236653
132	-1	0.220000000000	0.288000000000	0.932000000000	0.000000000000	0.034092016455	0.000000000000
133	-1	0.300000000000	0.610000000000	0.733000000000	0.000000000000	0.033982267399	0.000000000000
134	-1	-0.034000000000	0.775000000000	0.631000000000	0.000000000000	0.034180186192	0.000000000000
135	-1	-0.321000000000	0.555000000000	0.767000000000	0.000000000000	0.034054931216	0.000000000000
136	-1	-0.165000000000	0.255000000000	0.953000000000	0.000000000000	0.034091898376	0.000000000000
137	-1	0.034000000000	-0.775000000000	0.631000000000	0.000000000000	0.034180186192	0.000000000000
138	-1	0.321000000000	-0.555000000000	0.767000000000	0.000000000000	0.034054931216	0.000000000000
139	-1	0.953000000000	-0.165000000000	0.255000000000	0.000000000000	0.034091898376	0.000000000000
140	-1	0.932000000000	0.220000000000	0.288000000000	0.000000000000	0.034092016455	0.000000000000
141	1	0.555000000000	0.767000000000	-0.321000000000	1.325443312760	0.034054931216	38.920745555235
142	1	0.255000000000	0.953000000000	-0.165000000000	1.641407881579	0.034091898376	48.146567359709
143	1	-0.610000000000	0.733000000000	-0.300000000000	1.325443312760	0.033982267399	39.003969252916
144	-1	-0.775000000000	0.631000000000	0.034000000000	0.000000000000	0.034180186192	0.000000000000
145	-1	-0.932000000000	-0.220000000000	0.288000000000	0.000000000000	0.034092016455	0.000000000000
146	-1	-0.733000000000	-0.300000000000	0.610000000000	0.000000000000	0.033982267399	0.000000000000
147	1	0.288000000000	-0.932000000000	-0.220000000000	1.641407881579	0.034092016455	48.146400602435
148	1	0.610000000000	-0.733000000000	-0.300000000000	1.327149296355	0.033982267399	39.054171423806
149	1	0.631000000000	0.034000000000	-0.775000000000	1.327329756757	0.034180186192	38.833309721785
150	1	-0.220000000000	0.288000000000	-0.932000000000	0.887666354973	0.034092016455	26.037367315878
151	1	-0.767000000000	-0.321000000000	-0.555000000000	1.747949432643	0.034054931216	51.327351729350
152	-1	0.344000000000	0.124000000000	0.931000000000	0.000000000000	0.038509148012	0.000000000000
153	-1	0.471000000000	0.628000000000	0.619000000000	0.000000000000	0.038653495266	0.000000000000
154	-1	-0.053000000000	0.887000000000	0.459000000000	0.000000000000	0.038599707617	0.000000000000
155	-1	-0.504000000000	0.542000000000	0.672000000000	0.000000000000	0.038572414466	0.000000000000
156	-1	-0.258000000000	0.071000000000	0.963000000000	0.000000000000	0.038558646066	0.000000000000
157	-1	0.053000000000	-0.887000000000	0.459000000000	0.000000000000	0.038599707617	0.000000000000
158	-1	0.504000000000	-0.542000000000	0.672000000000	0.000000000000	0.038572414466	0.000000000000
159	-1	0.963000000000	-0.258000000000	0.071000000000	0.000000000000	0.038558646066	0.000000000000
160	-1	0.931000000000	0.344000000000	0.124000000000	0.000000000000	0.038509148012	0.000000000000
161	1	0.542000000000	0.672000000000	-0.504000000000	1.636123859552	0.038572414466	42.416941801783
162	1	0.071000000000	0.963000000000	-0.258000000000	1.639622360815	0.038558646066	42.522819862613
163	1	-0.628000000000	0.619000000000	-0.471000000000	1.639622360815	0.038653495266	42.418475988068
164	-1	-0.887000000000	0.459000000000	0.053000000000	0.000000000000	0.038599707617	0.000000000000
165	-1	-0.931000000000	-0.344000000000	0.124000000000	0.000000000000	0.038509148012	0.000000000000
166	-1	-0.619000000000	-0.471000000000	0.628000000000	0.000000000000	0.038653495266	0.000000000000
167	1	0.124000000000	-0.931000000000	-0.344000000000	1.327329756757	0.038509148012	34.467907634604
168	1	0.628000000000	-0.619000000000	-0.471000000000	1.641407881579	0.038653495266	42.464668984381
169	1	0.459000000000	0.053000000000	-0.887000000000	1.546793095276	0.038599707617	40.072663519292
170	1	-0.344000000000	0.124000000000	-0.931000000000	1.547646014611	0.038509148012	40.189048434349
171	1	-0.672000000000	-0.504000000000	-0.542000000000	1.747858245137	0.038572414466	45.313685164410
172	-1	0.459000000000	-0.053000000000	0.887000000000	0.000000000000	0.038599707617	0.000000000000
173	-1	0.628000000000	0.619000000000	0.471000000000	0.000000000000	0.038653495266	0.000000000000
174	-1	-0.071000000000	0.963000000000	0.258000000000	0.000000000000	0.038558646066	0.000000000000
175	-1	-0.672000000000	0.504000000000	0.542000000000	0.000000000000	0.038572414466	0.000000000000
176	-1	-0.344000000000	-0.124000000000	0.931000000000	0.000000000000	0.038509148012	0.000000000000
177	-1	0.071000000000	-0.963000000000	0.258000000000	0.000000000000	0.038558646066	0.000000000000
178	-1	0.672000000000	-0.504000000000	0.542000000000	0.000000000000	0.038572414466	0.000000000000
179	1	0.931000000000	-0.344000000000	-0.124000000000	1.856460020186	0.038509148012	48.208285979681
180	1	0.887000000000	0.459000000000	-0.053000000000	1.854076867034	0.038599707617	48.033443295334
181	1	0.504000000000	0.542000000000	-0.672000000000	1.702018534774	0.038572414466	44.125278605024
182	1	-0.124000000000	0.931000000000	-0.344000000000	1.324138712811	0.038509148012	34.385043065769
183	1	-0.619000000000	0.471000000000	-0.628000000000	1.703804202831	0.038653495266	44.078916824630
184	-1	-0.963000000000	0.258000000000	0.071000000000	0.000000000000	0.038558646066	0.000000000000
185	1	-0.887000000000	-0.459000000000	-0.053000000000	1.856460020186	0.038599707617	48.095183481964
186	-1	-0.471000000000	-0.628000000000	0.619000000000	0.000000000000	0.038653495266	0.000000000000
187	1	-0.053000000000	-0.887000000000	-0.459000000000	1.641407881579	0.038599707617	42.523842353142
188	1	0.619000000000	-0.471000000000	-0.628000000000	1.702242661980	0.038653495266	44.038518386145
189	1	0.258000000000	0.071000000000	-0.963000000000	0.887666354973	0.038558646066	23.021201352656
190	1	-0.459000000000	-0.053000000000	-0.887000000000	1.548775709143	0.038599707617	40.124026961922
191	1	-0.542000000000	-0.672000000000	-0.504000000000	1.641402196507	0.038572414466	42.553784076960
192	-1	0.549000000000	-0.221000000000	0.806000000000	0.000000000000	0.035387987088	0.000000000000
193	-1	0.751000000000	0.583000000000	0.309000000000	0.000000000000	0.035350898789	0.000000000000
194	-1	-0.085000000000	0.995000000000	0.055000000000	0.000000000000	0.035367339728	0.000000000000
195	-1	-0.804000000000	0.446000000000	0.394000000000	0.000000000000	0.035322380215	0.000000000000
196	-1	-0.412000000000	-0.305000000000	0.859000000000	0.000000000000	0.035355553908	0.000000000000
197	-1	0.085000000000	-0.995000000000	0.055000000000	0.000000000000	0.035367339728	0.000000000000
198	-1	0.804000000000	-0.446000000000	0.394000000000	0.000000000000	0.035322380215	0.000000000000
199	1	0.859000000000	-0.412000000000	-0.305000000000	1.325443312760	0.035355553908	37.488970366720
200	1	0.806000000000	0.549000000000	-0.221000000000	1.645652937085	0.035387987088	46.503151846789
201	1	0.446000000000	0.394000000000	-0.804000000000	1.327329756757	0.035322380215	37.577585334679
202	1	-0.305000000000	0.859000000000	-0.412000000000	1.645652937085	0.035355553908	46.545811200192
203	1	-0.583000000000	0.309000000000	-0.751000000000	1.327649552800	0.035350898789	37.556316763166
204	-1	-0.995000000000	0.055000000000	0.085000000000	0.000000000000	0.035367339728	0.000000000000
205	1	-0.806000000000	-0.549000000000	-0.221000000000	1.641407881579	0.035387987088	46.383194317275
206	-1	-0.309000000000	-0.751000000000	0.583000000000	0.000000000000	0.035350898789	0.000000000000
207	1	-0.221000000000	-0.806000000000	-0.549000000000	1.751193016699	0.035387987088	49.485522088801
208	1	0.583000000000	-0.309000000000	-0.751000000000	1.327149296355	0.035350898789	37.542165596929
209	1	0.055000000000	0.085000000000	-0.995000000000	0.887666354973	0.035367339728	25.098476780834
210	1	-0.549000000000	-0.221000000000	-0.806000000000	1.324138712811	0.035387987088	37.417746014634
211	1	-0.394000000000	-0.804000000000	-0.446000000000	1.636123859552	0.035322380215	46.319751092327
212	-1	0.026000000000	0.261000000000	0.965000000000	0.000000000000	0.032168047658	0.000000000000
213	-1	0.280000000000	0.450000000000	0.848000000000	0.000000000000	0.032144583920	0.000000000000
214	-1	0.147000000000	0.713000000000	0.685000000000	0.000000000000	0.032130021036	0.000000000000
215	-1	-0.189000000000	0.687000000000	0.702000000000	0.000000000000	0.032126868799	0.000000000000
216	-1	-0.264000000000	0.407000000000	0.874000000000	0.000000000000	0.032128594000	0.000000000000
217	-1	-0.147000000000	-0.713000000000	0.685000000000	0.000000000000	0.032130021036	0.000000000000
218	-1	0.189000000000	-0.687000000000	0.702000000000	0.000000000000	0.032126868799	0.000000000000
219	-1	0.874000000000	-0.264000000000	0.407000000000	0.000000000000	0.032128594000	0.000000000000
220	-1	0.965000000000	0.026000000000	0.261000000000	0.000000000000	0.032168047658	0.000000000000
221	1	0.687000000000	0.702000000000	-0.189000000000	1.645652937085	0.032126868799	51.223570756452
222	1	0.407000000000	0.874000000000	-0.264000000000	1.645652937085	0.032128594000	51.220820217115
223	1	-0.450000000000	0.848000000000	-0.280000000000	1.641407881579	0.032144583920	51.063279763215
224	1	-0.713000000000	0.685000000000	-0.147000000000	1.858436986061	0.032130021036	57.841138166647
225	-1	-0.965000000000	-0.026000000000	0.261000000000	0.000000000000	0.032168047658	0.000000000000
226	-1	-0.848000000000	-0.280000000000	0.450000000000	0.000000000000	0.032144583920	0.000000000000
227	1	0.261000000000	-0.965000000000	-0.026000000000	1.857122919076	0.032168047658	57.731912698490
228	1	0.450000000000	-0.848000000000	-0.280000000000	1.636123859552	0.032144583920	50.898896797805
229	1	0.685000000000	-0.147000000000	-0.713000000000	1.703804202831	0.032130021036	53.028418528060
230	1	-0.026000000000	0.261000000000	-0.965000000000	0.887666354973	0.032168047658	27.594660528017
231	1	-0.702000000000	-0.189000000000	-0.687000000000	1.702810106806	0.032126868799	53.002678769758
232	-1	0.140000000000	0.104000000000	0.985000000000	0.000000000000	0.036298811695	0.000000000000
233	-1	0.451000000000	0.470000000000	0.759000000000	0.000000000000	0.036372252023	0.000000000000
234	-1	0.139000000000	0.835000000000	0.533000000000	0.000000000000	0.036302988869	0.000000000000
235	-1	-0.366000000000	0.694000000000	0.620000000000	0.000000000000	0.036304882832	0.000000000000
236	-1	-0.365000000000	0.243000000000	0.899000000000	0.000000000000	0.036265964996	0.000000000000
237	-1	-0.139000000000	-0.835000000000	0.533000000000	0.000000000000	0.036302988869	0.000000000000
238	-1	0.366000000000	-0.694000000000	0.620000000000	0.000000000000	0.036304882832	0.000000000000
239	-1	0.899000000000	-0.365000000000	0.243000000000	0.000000000000	0.036265964996	0.000000000000
240	-1	0.985000000000	0.140000000000	0.104000000000	0.000000000000	0.036298811695	0.000000000000
241	1	0.694000000000	0.620000000000	-0.366000000000	1.327149296355	0.036304882832	36.555669453727
242	1	0.243000000000	0.899000000000	-0.365000000000	1.324138712811	0.036265964996	36.511884157620
243	1	-0.470000000000	0.759000000000	-0.451000000000	1.639622360815	0.036372252023	45.078934342312
244	1	-0.835000000000	0.533000000000	-0.139000000000	1.854076867034	0.036302988869	51.072292525023
245	-1	-0.985000000000	-0.140000000000	0.104000000000	0.000000000000	0.036298811695	0.000000000000
246	-1	-0.759000000000	-0.451000000000	0.470000000000	0.000000000000	0.036372252023	0.000000000000
247	1	0.104000000000	-0.985000000000	-0.140000000000	1.858436986061	0.036298811695	51.198287196485
248	1	0.470000000000	-0.759000000000	-0.451000000000	1.641407881579	0.036372252023	45.128024532362
249	1	0.533000000000	-0.139000000000	-0.835000000000	1.327149296355	0.036302988869	36.557576599431
250	1	-0.140000000000	0.104000000000	-0.985000000000	0.887666354973	0.036298811695	24.454419126103
251	1	-0.620000000000	-0.366000000000	-0.694000000000	1.703804202831	0.036304882832	46.930442131589
252	-1	0.258000000000	-0.071000000000	0.963000000000	0.000000000000	0.038558646066	0.000000000000
253	-1	0.619000000000	0.471000000000	0.628000000000	0.000000000000	0.038653495266	0.000000000000
254	-1	0.124000000000	0.931000000000	0.344000000000	0.000000000000	0.038509148012	0.000000000000
255	-1	-0.542000000000	0.672000000000	0.504000000000	0.000000000000	0.038572414466	0.000000000000
256	-1	-0.459000000000	0.053000000000	0.887000000000	0.000000000000	0.038599707617	0.000000000000
257	-1	-0.124000000000	-0.931000000000	0.344000000000	0.000000000000	0.038509148012	0.000000000000
258	-1	0.542000000000	-0.672000000000	0.504000000000	0.000000000000	0.038572414466	0.000000000000
259	-1	0.887000000000	-0.459000000000	0.053000000000	0.000000000000	0.038599707617	0.000000000000
260	1	0.963000000000	0.258000000000	-0.071000000000	1.858436986061	0.038558646066	48.197672264614
261	1	0.672000000000	0.504000000000	-0.542000000000	1.751193016699	0.038572414466	45.400139995108
262	1	0.053000000000	0.887000000000	-0.459000000000	1.645652937085	0.038599707617	42.633818717409
263	1	-0.471000000000	0.628000000000	-0.619000000000	1.751193016699	0.038653495266	45.304907218034
264	1	-0.931000000000	0.344000000000	-0.124000000000	1.861026667783	0.038509148012	48.326872025669
265	1	-0.963000000000	-0.258000000000	-0.071000000000	1.861026667783	0.038558646066	48.264834418531
266	-1	-0.628000000000	-0.619000000000	0.471000000000	0.000000000000	0.038653495266	0.000000000000
267	1	-0.071000000000	-0.963000000000	-0.258000000000	1.641402196507	0.038558646066	42.568979048006
268	1	0.471000000000	-0.628000000000	-0.619000000000	1.746075678948	0.038653495266	45.172517178901
269	1	0.344000000000	-0.124000000000	-0.931000000000	1.546876157500	0.038509148012	40.169056895956
270	1	-0.258000000000	-0.071000000000	-0.963000000000	0.887666354973	0.038558646066	23.021201352656
271	1	-0.504000000000	-0.542000000000	-0.672000000000	1.703804202831	0.038572414466	44.171572519506
272	-1	0.365000000000	-0.243000000000	0.899000000000	0.000000000000	0.036265964996	0.000000000000
273	-1	0.759000000000	0.451000000000	0.470000000000	0.000000000000	0.036372252023	0.000000000000
274	-1	0.104000000000	0.985000000000	0.140000000000	0.000000000000	0.036298811695	0.000000000000
275	-1	-0.694000000000	0.620000000000	0.366000000000	0.000000000000	0.036304882832	0.000000000000
276	-1	-0.533000000000	-0.139000000000	0.835000000000	0.000000000000	0.036302988869	0.000000000000
277	-1	-0.104000000000	-0.985000000000	0.140000000000	0.000000000000	0.036298811695	0.000000000000
278	-1	0.694000000000	-0.620000000000	0.366000000000	0.000000000000	0.036304882832	0.000000000000
279	1	0.835000000000	-0.533000000000	-0.139000000000	1.857122919076	0.036302988869	51.156198895755
280	1	0.899000000000	0.365000000000	-0.243000000000	1.641402196507	0.036265964996	45.260127413463
281	1	0.620000000000	0.366000000000	-0.694000000000	1.700645468068	0.036304882832	46.843436348444
282	1	-0.139000000000	0.835000000000	-0.533000000000	1.747858245137	0.036302988869	48.146400602435
283	1	-0.451000000000	0.470000000000	-0.759000000000	1.327149296355	0.036372252023	36.487960534459
284	1	-0.985000000000	0.140000000000	-0.104000000000	1.854076867034	0.036298811695	51.078169792535
285	1	-0.899000000000	-0.365000000000	-0.243000000000	1.636123859552	0.036265964996	45.114582218260
286	-1	-0.470000000000	-0.759000000000	0.451000000000	0.000000000000	0.036372252023	0.000000000000
287	1	-0.243000000000	-0.899000000000	-0.365000000000	1.327649552800	0.036265964996	36.608692280318
288	1	0.451000000000	-0.470000000000	-0.759000000000	1.325443312760	0.036372252023	36.441057098452
289	1	0.140000000000	-0.104000000000	-0.985000000000	0.887666354973	0.036298811695	24.454419126103
290	1	-0.365000000000	-0.243000000000	-0.899000000000	1.546944864181	0.036265964996	42.655554990373
291	1	-0.366000000000	-0.694000000000	-0.620000000000	1.747858245137	0.036304882832	48.143888887775
292	-1	0.055000000000	-0.085000000000	0.995000000000	0.000000000000	0.035367339728	0.000000000000
293	-1	0.583000000000	0.309000000000	0.751000000000	0.000000000000	0.035350898789	0.000000000000
294	-1	0.305000000000	0.859000000000	0.412000000000	0.000000000000	0.035355553908	0.000000000000
295	-1	-0.394000000000	0.804000000000	0.446000000000	0.000000000000	0.035322380215	0.000000000000
296	-1	-0.549000000000	0.221000000000	0.806000000000	0.000000000000	0.035387987088	0.000000000000
297	-1	-0.305000000000	-0.859000000000	0.412000000000	0.000000000000	0.035355553908	0.000000000000
298	-1	0.394000000000	-0.804000000000	0.446000000000	0.000000000000	0.035322380215	0.000000000000
299	-1	0.806000000000	-0.549000000000	0.221000000000	0.000000000000	0.035387987088	0.000000000000
300	1	0.995000000000	0.055000000000	-0.085000000000	1.861026667783	0.035367339728	52.619922280664
301	1	0.804000000000	0.446000000000	-0.394000000000	1.324138712811	0.035322380215	37.487244765138
302	1	0.221000000000	0.806000000000	-0.549000000000	1.746075678948	0.035387987088	49.340915453270
303	1	-0.309000000000	0.751000000000	-0.583000000000	1.746075678948	0.035350898789	49.392681338783