ITEM: TIMESTEP
-1
ITEM: NUMBER OF ATOMS
372
ITEM: BOX BOUNDS
-1.000000000000	1.000000000000
-1.000000000000	1.000000000000
-1.000000000000	1.000000000000
ITEM: ATOMS index type x y z Vq Va Vq/a
0	-1	0.851000000000	0.000000000000	0.526000000000	0.000000000000	0.018436816540	0.000000000000
1	1	0.526000000000	0.851000000000	0.000000000000	1.904422753758	0.018436816540	103.294554654581
2	1	-0.526000000000	0.851000000000	0.000000000000	1.906450795706	0.018436816540	103.404554227652
3	-1	-0.851000000000	0.000000000000	0.526000000000	0.000000000000	0.018436816540	0.000000000000
4	-1	0.000000000000	-0.526000000000	0.851000000000	0.000000000000	0.018436816540	0.000000000000
5	-1	0.526000000000	-0.851000000000	0.000000000000	0.000000000000	0.018436816540	0.000000000000
6	1	0.851000000000	0.000000000000	-0.526000000000	1.793108731537	0.018436816540	97.256960150192
7	1	0.000000000000	0.526000000000	-0.851000000000	1.586911092144	0.018436816540	86.072944789173
8	1	-0.851000000000	0.000000000000	-0.526000000000	1.688169346011	0.018436816540	91.565121469811
9	-1	-0.526000000000	-0.851000000000	0.000000000000	0.000000000000	0.018436816540	0.000000000000
10	1	0.000000000000	-0.526000000000	-0.851000000000	1.587630357207	0.018436816540	86.111957221776
11	-1	0.685000000000	0.147000000000	0.713000000000	0.000000000000	0.032130021036	0.000000000000
12	-1	0.450000000000	0.848000000000	0.280000000000	0.000000000000	0.032144583920	0.000000000000
13	-1	-0.407000000000	0.874000000000	0.264000000000	0.000000000000	0.032128594000	0.000000000000
14	-1	-0.702000000000	0.189000000000	0.687000000000	0.000000000000	0.032126868799	0.000000000000
15	-1	-0.026000000000	-0.261000000000	0.965000000000	0.000000000000	0.032168047658	0.000000000000
16	-1	0.407000000000	-0.874000000000	0.264000000000	0.000000000000	0.032128594000	0.000000000000
17	-1	0.702000000000	-0.189000000000	0.687000000000	0.000000000000	0.032126868799	0.000000000000
18	1	0.965000000000	-0.026000000000	-0.261000000000	1.683808785057	0.032168047658	52.344139841986
19	-1	0.713000000000	0.685000000000	0.147000000000	0.000000000000	0.032130021036	0.000000000000
20	1	0.189000000000	0.687000000000	-0.702000000000	1.744582641290	0.032126868799	54.302915488918
21	1	-0.261000000000	0.965000000000	-0.026000000000	1.906450795706	0.032168047658	59.265355982160
22	1	-0.848000000000	0.280000000000	-0.450000000000	1.678394079171	0.032144583920	52.213899652538
23	-1	-0.874000000000	0.264000000000	0.407000000000	0.000000000000	0.032128594000	0.000000000000
24	-1	-0.713000000000	-0.685000000000	0.147000000000	0.000000000000	0.032130021036	0.000000000000
25	-1	-0.280000000000	-0.450000000000	0.848000000000	0.000000000000	0.032144583920	0.000000000000
26	1	0.147000000000	-0.713000000000	-0.685000000000	1.744582641290	0.032130021036	54.297587895014
27	1	0.848000000000	-0.280000000000	-0.450000000000	1.683808785057	0.032144583920	52.382348119609
28	1	0.264000000000	0.407000000000	-0.874000000000	1.587630357207	0.032128594000	49.414871912059
29	1	-0.685000000000	0.147000000000	-0.713000000000	1.745991181980	0.032130021036	54.341426667739
30	1	-0.687000000000	-0.702000000000	-0.189000000000	1.678394079171	0.032126868799	52.242690991674
31	-1	0.761000000000	-0.016000000000	0.648000000000	0.000000000000	0.027564870473	0.000000000000
32	-1	0.572000000000	0.808000000000	0.139000000000	0.000000000000	0.027529437220	0.000000000000
33	-1	-0.408000000000	0.910000000000	0.076000000000	0.000000000000	0.027575260792	0.000000000000
34	-1	-0.824000000000	0.149000000000	0.547000000000	0.000000000000	0.027502340699	0.000000000000
35	-1	-0.102000000000	-0.423000000000	0.900000000000	0.000000000000	0.027568618633	0.000000000000
36	-1	0.408000000000	-0.910000000000	0.076000000000	0.000000000000	0.027575260792	0.000000000000
37	-1	0.824000000000	-0.149000000000	0.547000000000	0.000000000000	0.027502340699	0.000000000000
38	1	0.900000000000	-0.102000000000	-0.423000000000	1.688169346011	0.027568618633	61.235180786099
39	1	0.648000000000	0.761000000000	-0.016000000000	1.901978030446	0.027564870473	69.000071387913
40	1	0.149000000000	0.547000000000	-0.824000000000	1.359686918215	0.027502340699	49.438952599838
41	1	-0.423000000000	0.900000000000	-0.102000000000	1.909107383374	0.027568618633	69.249294235346
42	1	-0.808000000000	0.139000000000	-0.572000000000	1.792808876333	0.027529437220	65.123339136861
43	-1	-0.910000000000	0.076000000000	0.408000000000	0.000000000000	0.027575260792	0.000000000000
44	1	-0.648000000000	-0.761000000000	-0.016000000000	1.909107383374	0.027564870473	69.258710474756
45	-1	-0.139000000000	-0.572000000000	0.808000000000	0.000000000000	0.027529437220	0.000000000000
46	1	-0.016000000000	-0.648000000000	-0.761000000000	1.361436976897	0.027564870473	49.390291103418
47	1	0.808000000000	-0.139000000000	-0.572000000000	1.793015188148	0.027529437220	65.130833362525
48	1	0.076000000000	0.408000000000	-0.910000000000	1.586755402200	0.027575260792	57.542716066368
49	1	-0.761000000000	-0.016000000000	-0.648000000000	1.746221099644	0.027564870473	63.349512247630
50	1	-0.547000000000	-0.824000000000	-0.149000000000	1.901978030446	0.027502340699	69.156951084449
51	-1	0.412000000000	0.305000000000	0.859000000000	0.000000000000	0.035355553908	0.000000000000
52	-1	0.309000000000	0.751000000000	0.583000000000	0.000000000000	0.035350898789	0.000000000000
53	-1	-0.221000000000	0.806000000000	0.549000000000	0.000000000000	0.035387987088	0.000000000000
54	-1	-0.446000000000	0.394000000000	0.804000000000	0.000000000000	0.035322380215	0.000000000000
55	-1	-0.055000000000	0.085000000000	0.995000000000	0.000000000000	0.035367339728	0.000000000000
56	-1	0.221000000000	-0.806000000000	0.549000000000	0.000000000000	0.035387987088	0.000000000000
57	-1	0.446000000000	-0.394000000000	0.804000000000	0.000000000000	0.035322380215	0.000000000000
58	-1	0.995000000000	-0.055000000000	0.085000000000	0.000000000000	0.035367339728	0.000000000000
59	-1	0.859000000000	0.412000000000	0.305000000000	0.000000000000	0.035355553908	0.000000000000
60	1	0.394000000000	0.804000000000	-0.446000000000	1.688169346011	0.035322380215	47.793193316257
61	1	0.085000000000	0.995000000000	-0.055000000000	1.904422753758	0.035367339728	53.846932463182
62	1	-0.751000000000	0.583000000000	-0.309000000000	1.361436976897	0.035350898789	38.512089466378
63	-1	-0.806000000000	0.549000000000	0.221000000000	0.000000000000	0.035387987088	0.000000000000
64	-1	-0.859000000000	-0.412000000000	0.305000000000	0.000000000000	0.035355553908	0.000000000000
65	-1	-0.583000000000	-0.309000000000	0.751000000000	0.000000000000	0.035350898789	0.000000000000
66	1	0.305000000000	-0.859000000000	-0.412000000000	1.683808785057	0.035355553908	47.625014995783
67	1	0.751000000000	-0.583000000000	-0.309000000000	1.361622099600	0.035350898789	38.517326184796
68	1	0.549000000000	0.221000000000	-0.806000000000	1.361950157761	0.035387987088	38.486228515678
69	1	-0.412000000000	0.305000000000	-0.859000000000	1.586911092144	0.035355553908	44.884351020756
70	1	-0.804000000000	-0.446000000000	-0.394000000000	1.361436976897	0.035322380215	38.543183347390
71	-1	0.533000000000	0.139000000000	0.835000000000	0.000000000000	0.036302988869	0.000000000000
72	-1	0.470000000000	0.759000000000	0.451000000000	0.000000000000	0.036372252023	0.000000000000
73	-1	-0.243000000000	0.899000000000	0.365000000000	0.000000000000	0.036265964996	0.000000000000
74	-1	-0.620000000000	0.366000000000	0.694000000000	0.000000000000	0.036304882832	0.000000000000
75	-1	-0.140000000000	-0.104000000000	0.985000000000	0.000000000000	0.036298811695	0.000000000000
76	-1	0.243000000000	-0.899000000000	0.365000000000	0.000000000000	0.036265964996	0.000000000000
77	-1	0.620000000000	-0.366000000000	0.694000000000	0.000000000000	0.036304882832	0.000000000000
78	1	0.985000000000	-0.140000000000	-0.104000000000	1.906450795706	0.036298811695	52.521024977782
79	-1	0.835000000000	0.533000000000	0.139000000000	0.000000000000	0.036302988869	0.000000000000
80	1	0.366000000000	0.694000000000	-0.620000000000	1.744582641290	0.036304882832	48.053664003641
81	1	-0.104000000000	0.985000000000	-0.140000000000	1.904422753758	0.036298811695	52.465154224623
82	1	-0.759000000000	0.451000000000	-0.470000000000	1.683808785057	0.036372252023	46.293773176460
83	-1	-0.899000000000	0.365000000000	0.243000000000	0.000000000000	0.036265964996	0.000000000000
84	-1	-0.835000000000	-0.533000000000	0.139000000000	0.000000000000	0.036302988869	0.000000000000
85	-1	-0.451000000000	-0.470000000000	0.759000000000	0.000000000000	0.036372252023	0.000000000000
86	1	0.139000000000	-0.835000000000	-0.533000000000	1.791186568316	0.036302988869	49.339920048891
87	1	0.759000000000	-0.451000000000	-0.470000000000	1.681982966266	0.036372252023	46.243575053170
88	1	0.365000000000	0.243000000000	-0.899000000000	1.588789238060	0.036265964996	43.809374387812
89	1	-0.533000000000	0.139000000000	-0.835000000000	1.586755402200	0.036302988869	43.708671149381
90	1	-0.694000000000	-0.620000000000	-0.366000000000	1.361950157761	0.036304882832	37.514241929163
91	-1	0.631000000000	-0.034000000000	0.775000000000	0.000000000000	0.034180186192	0.000000000000
92	-1	0.610000000000	0.733000000000	0.300000000000	0.000000000000	0.033982267399	0.000000000000
93	-1	-0.255000000000	0.953000000000	0.165000000000	0.000000000000	0.034091898376	0.000000000000
94	-1	-0.767000000000	0.321000000000	0.555000000000	0.000000000000	0.034054931216	0.000000000000
95	-1	-0.220000000000	-0.288000000000	0.932000000000	0.000000000000	0.034092016455	0.000000000000
96	-1	0.255000000000	-0.953000000000	0.165000000000	0.000000000000	0.034091898376	0.000000000000
97	-1	0.767000000000	-0.321000000000	0.555000000000	0.000000000000	0.034054931216	0.000000000000
98	1	0.932000000000	-0.220000000000	-0.288000000000	1.361622099600	0.034092016455	39.939617575983
99	1	0.775000000000	0.631000000000	-0.034000000000	1.905102779030	0.034180186192	55.737050942531
100	1	0.321000000000	0.555000000000	-0.767000000000	1.359686918215	0.034054931216	39.926285846546
101	1	-0.288000000000	0.932000000000	-0.220000000000	1.678394079171	0.034092016455	49.231293824910
102	1	-0.733000000000	0.300000000000	-0.610000000000	1.793108731537	0.033982267399	52.766012064592
103	-1	-0.953000000000	0.165000000000	0.255000000000	0.000000000000	0.034091898376	0.000000000000
104	1	-0.775000000000	-0.631000000000	-0.034000000000	1.901978030446	0.034180186192	55.645631060662
105	-1	-0.300000000000	-0.610000000000	0.733000000000	0.000000000000	0.033982267399	0.000000000000
106	1	-0.034000000000	-0.775000000000	-0.631000000000	1.746221099644	0.034180186192	51.088694772308
107	1	0.733000000000	-0.300000000000	-0.610000000000	1.792808876333	0.033982267399	52.757188191818
108	1	0.165000000000	0.255000000000	-0.953000000000	0.910599735936	0.034091898376	26.710150484837
109	1	-0.631000000000	-0.034000000000	-0.775000000000	1.358348613162	0.034180186192	39.740819594020
110	1	-0.555000000000	-0.767000000000	-0.321000000000	1.361950157761	0.034054931216	39.992744343607
111	-1	0.000000000000	0.526000000000	0.851000000000	0.000000000000	0.018436816540	0.000000000000
112	-1	0.102000000000	0.423000000000	0.900000000000	0.000000000000	0.027568618633	0.000000000000
113	-1	0.139000000000	0.572000000000	0.808000000000	0.000000000000	0.027529437220	0.000000000000
114	-1	-0.016000000000	0.648000000000	0.761000000000	0.000000000000	0.027564870473	0.000000000000
115	-1	-0.149000000000	0.547000000000	0.824000000000	0.000000000000	0.027502340699	0.000000000000
116	-1	-0.076000000000	0.408000000000	0.910000000000	0.000000000000	0.027575260792	0.000000000000
117	-1	0.016000000000	-0.648000000000	0.761000000000	0.000000000000	0.027564870473	0.000000000000
118	-1	0.149000000000	-0.547000000000	0.824000000000	0.000000000000	0.027502340699	0.000000000000
119	-1	0.910000000000	-0.076000000000	0.408000000000	0.000000000000	0.027575260792	0.000000000000
120	-1	0.900000000000	0.102000000000	0.423000000000	0.000000000000	0.027568618633	0.000000000000
121	1	0.547000000000	0.824000000000	-0.149000000000	1.909107383374	0.027502340699	69.416178217371
122	1	0.408000000000	0.910000000000	-0.076000000000	1.901978030446	0.027575260792	68.974072260077
123	1	-0.572000000000	0.808000000000	-0.139000000000	1.905102779030	0.027529437220	69.202387386173
124	-1	-0.648000000000	0.761000000000	0.016000000000	0.000000000000	0.027564870473	0.000000000000
125	-1	-0.900000000000	-0.102000000000	0.423000000000	0.000000000000	0.027568618633	0.000000000000
126	-1	-0.808000000000	-0.139000000000	0.572000000000	0.000000000000	0.027529437220	0.000000000000
127	1	0.423000000000	-0.900000000000	-0.102000000000	1.901978030446	0.027568618633	68.990690312420
128	1	0.572000000000	-0.808000000000	-0.139000000000	1.904422753758	0.027529437220	69.177685636304
129	1	0.761000000000	0.016000000000	-0.648000000000	1.745991181980	0.027564870473	63.341171281036
130	1	-0.102000000000	0.423000000000	-0.900000000000	1.586840610386	0.027568618633	57.559670707985
131	1	-0.824000000000	-0.149000000000	-0.547000000000	1.793015188148	0.027502340699	65.195003136457
132	-1	0.220000000000	0.288000000000	0.932000000000	0.000000000000	0.034092016455	0.000000000000
133	-1	0.300000000000	0.610000000000	0.733000000000	0.000000000000	0.033982267399	0.000000000000
134	-1	-0.034000000000	0.775000000000	0.631000000000	0.000000000000	0.034180186192	0.000000000000
135	-1	-0.321000000000	0.555000000000	0.767000000000	0.000000000000	0.034054931216	0.000000000000
136	-1	-0.165000000000	0.255000000000	0.953000000000	0.000000000000	0.034091898376	0.000000000000
137	-1	0.034000000000	-0.775000000000	0.631000000000	0.000000000000	0.034180186192	0.000000000000
138	-1	0.321000000000	-0.555000000000	0.767000000000	0.000000000000	0.034054931216	0.000000000000
139	-1	0.953000000000	-0.165000000000	0.255000000000	0.000000000000	0.034091898376	0.000000000000
140	-1	0.932000000000	0.220000000000	0.288000000000	0.000000000000	0.034092016455	0.000000000000
141	1	0.555000000000	0.767000000000	-0.321000000000	1.359686918215	0.034054931216	39.926285846546
142	1	0.255000000000	0.953000000000	-0.165000000000	1.683814617007	0.034091898376	49.390462168964
143	1	-0.610000000000	0.733000000000	-0.300000000000	1.359686918215	0.033982267399	40.011659677273
144	-1	-0.775000000000	0.631000000000	0.034000000000	0.000000000000	0.034180186192	0.000000000000
145	-1	-0.932000000000	-0.220000000000	0.288000000000	0.000000000000	0.034092016455	0.000000000000
146	-1	-0.733000000000	-0.300000000000	0.610000000000	0.000000000000	0.033982267399	0.000000000000
147	1	0.288000000000	-0.932000000000	-0.220000000000	1.683814617007	0.034092016455	49.390291103418
148	1	0.610000000000	-0.733000000000	-0.300000000000	1.361436976897	0.033982267399	40.063158850695
149	1	0.631000000000	0.034000000000	-0.775000000000	1.361622099600	0.034180186192	39.836591057051
150	1	-0.220000000000	0.288000000000	-0.932000000000	0.910599735936	0.034092016455	26.710057973322
151	1	-0.767000000000	-0.321000000000	-0.555000000000	1.793108731537	0.034054931216	52.653423968560
152	-1	0.344000000000	0.124000000000	0.931000000000	0.000000000000	0.038509148012	0.000000000000
153	-1	0.471000000000	0.628000000000	0.619000000000	0.000000000000	0.038653495266	0.000000000000
154	-1	-0.053000000000	0.887000000000	0.459000000000	0.000000000000	0.038599707617	0.000000000000
155	-1	-0.504000000000	0.542000000000	0.672000000000	0.000000000000	0.038572414466	0.000000000000
156	-1	-0.258000000000	0.071000000000	0.963000000000	0.000000000000	0.038558646066	0.000000000000
157	-1	0.053000000000	-0.887000000000	0.459000000000	0.000000000000	0.038599707617	0.000000000000
158	-1	0.504000000000	-0.542000000000	0.672000000000	0.000000000000	0.038572414466	0.000000000000
159	-1	0.963000000000	-0.258000000000	0.071000000000	0.000000000000	0.038558646066	0.000000000000
160	-1	0.931000000000	0.344000000000	0.124000000000	0.000000000000	0.038509148012	0.000000000000
161	1	0.542000000000	0.672000000000	-0.504000000000	1.678394079171	0.038572414466	43.512808373900
162	1	0.071000000000	0.963000000000	-0.258000000000	1.681982966266	0.038558646066	43.621421856537
163	1	-0.628000000000	0.619000000000	-0.471000000000	1.681982966266	0.038653495266	43.514382196789
164	-1	-0.887000000000	0.459000000000	0.053000000000	0.000000000000	0.038599707617	0.000000000000
165	-1	-0.931000000000	-0.344000000000	0.124000000000	0.000000000000	0.038509148012	0.000000000000
166	-1	-0.619000000000	-0.471000000000	0.628000000000	0.000000000000	0.038653495266	0.000000000000
167	1	0.124000000000	-0.931000000000	-0.344000000000	1.361622099600	0.038509148012	35.358406246317
168	1	0.628000000000	-0.619000000000	-0.471000000000	1.683814617007	0.038653495266	43.561768616257
169	1	0.459000000000	0.053000000000	-0.887000000000	1.586755402200	0.038599707617	41.107964286889
170	1	-0.344000000000	0.124000000000	-0.931000000000	1.587630357207	0.038509148012	41.227356074495
171	1	-0.672000000000	-0.504000000000	-0.542000000000	1.793015188148	0.038572414466	46.484390800455
172	-1	0.459000000000	-0.053000000000	0.887000000000	0.000000000000	0.038599707617	0.000000000000
173	-1	0.628000000000	0.619000000000	0.471000000000	0.000000000000	0.038653495266	0.000000000000
174	-1	-0.071000000000	0.963000000000	0.258000000000	0.000000000000	0.038558646066	0.000000000000
175	-1	-0.672000000000	0.504000000000	0.542000000000	0.000000000000	0.038572414466	0.000000000000
176	-1	-0.344000000000	-0.124000000000	0.931000000000	0.000000000000	0.038509148012	0.000000000000
177	-1	0.071000000000	-0.963000000000	0.258000000000	0.000000000000	0.038558646066	0.000000000000
178	-1	0.672000000000	-0.504000000000	0.542000000000	0.000000000000	0.038572414466	0.000000000000
179	1	0.931000000000	-0.344000000000	-0.124000000000	1.904422753758	0.038509148012	49.453775325685
180	1	0.887000000000	0.459000000000	-0.053000000000	1.901978030446	0.038599707617	49.274415478031
181	1	0.504000000000	0.542000000000	-0.672000000000	1.745991181980	0.038572414466	45.265281060519
182	1	-0.124000000000	0.931000000000	-0.344000000000	1.358348613162	0.038509148012	35.273400822740
183	1	-0.619000000000	0.471000000000	-0.628000000000	1.747822983818	0.038653495266	45.217721496334
184	-1	-0.963000000000	0.258000000000	0.071000000000	0.000000000000	0.038558646066	0.000000000000
185	1	-0.887000000000	-0.459000000000	-0.053000000000	1.904422753758	0.038599707617	49.337750758597
186	-1	-0.471000000000	-0.628000000000	0.619000000000	0.000000000000	0.038653495266	0.000000000000
187	1	-0.053000000000	-0.887000000000	-0.459000000000	1.683814617007	0.038599707617	43.622470763709
188	1	0.619000000000	-0.471000000000	-0.628000000000	1.746221099644	0.038653495266	45.176279340495
189	1	0.258000000000	0.071000000000	-0.963000000000	0.910599735936	0.038558646066	23.615967593237
190	1	-0.459000000000	-0.053000000000	-0.887000000000	1.588789238060	0.038599707617	41.160654734188
191	1	-0.542000000000	-0.672000000000	-0.504000000000	1.683808785057	0.038572414466	43.653186049525
192	-1	0.549000000000	-0.221000000000	0.806000000000	0.000000000000	0.035387987088	0.000000000000
193	-1	0.751000000000	0.583000000000	0.309000000000	0.000000000000	0.035350898789	0.000000000000
194	-1	-0.085000000000	0.995000000000	0.055000000000	0.000000000000	0.035367339728	0.000000000000
195	-1	-0.804000000000	0.446000000000	0.394000000000	0.000000000000	0.035322380215	0.000000000000
196	-1	-0.412000000000	-0.305000000000	0.859000000000	0.000000000000	0.035355553908	0.000000000000
197	-1	0.085000000000	-0.995000000000	0.055000000000	0.000000000000	0.035367339728	0.000000000000
198	-1	0.804000000000	-0.446000000000	0.394000000000	0.000000000000	0.035322380215	0.000000000000
199	1	0.859000000000	-0.412000000000	-0.305000000000	1.359686918215	0.035355553908	38.457519906194
200	1	0.806000000000	0.549000000000	-0.221000000000	1.688169346011	0.035387987088	47.704588052283
201	1	0.446000000000	0.394000000000	-0.804000000000	1.361622099600	0.035322380215	38.548424293830
202	1	-0.305000000000	0.859000000000	-0.412000000000	1.688169346011	0.035355553908	47.748349535104
203	1	-0.583000000000	0.309000000000	-0.751000000000	1.361950157761	0.035350898789	38.526606236295
204	-1	-0.995000000000	0.055000000000	0.085000000000	0.000000000000	0.035367339728	0.000000000000
205	1	-0.806000000000	-0.549000000000	-0.221000000000	1.683814617007	0.035387987088	47.581531349631
206	-1	-0.309000000000	-0.751000000000	0.583000000000	0.000000000000	0.035350898789	0.000000000000
207	1	-0.221000000000	-0.806000000000	-0.549000000000	1.796436115490	0.035387987088	50.764009578878
208	1	0.583000000000	-0.309000000000	-0.751000000000	1.361436976897	0.035350898789	38.512089466378
209	1	0.055000000000	0.085000000000	-0.995000000000	0.910599735936	0.035367339728	25.746910650577
210	1	-0.549000000000	-0.221000000000	-0.806000000000	1.358348613162	0.035387987088	38.384455431193
211	1	-0.394000000000	-0.804000000000	-0.446000000000	1.678394079171	0.035322380215	47.516449031752
212	-1	0.026000000000	0.261000000000	0.965000000000	0.000000000000	0.032168047658	0.000000000000
213	-1	0.280000000000	0.450000000000	0.848000000000	0.000000000000	0.032144583920	0.000000000000
214	-1	0.147000000000	0.713000000000	0.685000000000	0.000000000000	0.032130021036	0.000000000000
215	-1	-0.189000000000	0.687000000000	0.702000000000	0.000000000000	0.032126868799	0.000000000000
216	-1	-0.264000000000	0.407000000000	0.874000000000	0.000000000000	0.032128594000	0.000000000000
217	-1	-0.147000000000	-0.713000000000	0.685000000000	0.000000000000	0.032130021036	0.000000000000
218	-1	0.189000000000	-0.687000000000	0.702000000000	0.000000000000	0.032126868799	0.000000000000
219	-1	0.874000000000	-0.264000000000	0.407000000000	0.000000000000	0.032128594000	0.000000000000
220	-1	0.965000000000	0.026000000000	0.261000000000	0.000000000000	0.032168047658	0.000000000000
221	1	0.687000000000	0.702000000000	-0.189000000000	1.688169346011	0.032126868799	52.546961753352
222	1	0.407000000000	0.874000000000	-0.264000000000	1.688169346011	0.032128594000	52.544140152218
223	1	-0.450000000000	0.848000000000	-0.280000000000	1.683814617007	0.032144583920	52.382529548282
224	1	-0.713000000000	0.685000000000	-0.147000000000	1.906450795706	0.032130021036	59.335497899282
225	-1	-0.965000000000	-0.026000000000	0.261000000000	0.000000000000	0.032168047658	0.000000000000
226	-1	-0.848000000000	-0.280000000000	0.450000000000	0.000000000000	0.032144583920	0.000000000000
227	1	0.261000000000	-0.965000000000	-0.026000000000	1.905102779030	0.032168047658	59.223450527085
228	1	0.450000000000	-0.848000000000	-0.280000000000	1.678394079171	0.032144583920	52.213899652538
229	1	0.685000000000	-0.147000000000	-0.713000000000	1.747822983818	0.032130021036	54.398438825816
230	1	-0.026000000000	0.261000000000	-0.965000000000	0.910599735936	0.032168047658	28.307584769064
231	1	-0.702000000000	-0.189000000000	-0.687000000000	1.746803204740	0.032126868799	54.372034065760
232	-1	0.140000000000	0.104000000000	0.985000000000	0.000000000000	0.036298811695	0.000000000000
233	-1	0.451000000000	0.470000000000	0.759000000000	0.000000000000	0.036372252023	0.000000000000
234	-1	0.139000000000	0.835000000000	0.533000000000	0.000000000000	0.036302988869	0.000000000000
235	-1	-0.366000000000	0.694000000000	0.620000000000	0.000000000000	0.036304882832	0.000000000000
236	-1	-0.365000000000	0.243000000000	0.899000000000	0.000000000000	0.036265964996	0.000000000000
237	-1	-0.139000000000	-0.835000000000	0.533000000000	0.000000000000	0.036302988869	0.000000000000
238	-1	0.366000000000	-0.694000000000	0.620000000000	0.000000000000	0.036304882832	0.000000000000
239	-1	0.899000000000	-0.365000000000	0.243000000000	0.000000000000	0.036265964996	0.000000000000
240	-1	0.985000000000	0.140000000000	0.104000000000	0.000000000000	0.036298811695	0.000000000000
241	1	0.694000000000	0.620000000000	-0.366000000000	1.361436976897	0.036304882832	37.500106616663
242	1	0.243000000000	0.899000000000	-0.365000000000	1.358348613162	0.036265964996	37.455190101749
243	1	-0.470000000000	0.759000000000	-0.451000000000	1.681982966266	0.036372252023	46.243575053170
244	1	-0.835000000000	0.533000000000	-0.139000000000	1.901978030446	0.036302988869	52.391775160078
245	-1	-0.985000000000	-0.140000000000	0.104000000000	0.000000000000	0.036298811695	0.000000000000
246	-1	-0.759000000000	-0.451000000000	0.470000000000	0.000000000000	0.036372252023	0.000000000000
247	1	0.104000000000	-0.985000000000	-0.140000000000	1.906450795706	0.036298811695	52.521024977782
248	1	0.470000000000	-0.759000000000	-0.451000000000	1.683814617007	0.036372252023	46.293933517074
249	1	0.533000000000	-0.139000000000	-0.835000000000	1.361436976897	0.036302988869	37.502063034595
250	1	-0.140000000000	0.104000000000	-0.985000000000	0.910599735936	0.036298811695	25.086213388548
251	1	-0.620000000000	-0.366000000000	-0.694000000000	1.747822983818	0.036304882832	48.142917632229
252	-1	0.258000000000	-0.071000000000	0.963000000000	0.000000000000	0.038558646066	0.000000000000
253	-1	0.619000000000	0.471000000000	0.628000000000	0.000000000000	0.038653495266	0.000000000000
254	-1	0.124000000000	0.931000000000	0.344000000000	0.000000000000	0.038509148012	0.000000000000
255	-1	-0.542000000000	0.672000000000	0.504000000000	0.000000000000	0.038572414466	0.000000000000
256	-1	-0.459000000000	0.053000000000	0.887000000000	0.000000000000	0.038599707617	0.000000000000
257	-1	-0.124000000000	-0.931000000000	0.344000000000	0.000000000000	0.038509148012	0.000000000000
258	-1	0.542000000000	-0.672000000000	0.504000000000	0.000000000000	0.038572414466	0.000000000000
259	-1	0.887000000000	-0.459000000000	0.053000000000	0.000000000000	0.038599707617	0.000000000000
260	1	0.963000000000	0.258000000000	-0.071000000000	1.906450795706	0.038558646066	49.442887399064
261	1	0.672000000000	0.504000000000	-0.542000000000	1.796436115490	0.038572414466	46.573079242416
262	1	0.053000000000	0.887000000000	-0.459000000000	1.688169346011	0.038599707617	43.735288431856
263	1	-0.471000000000	0.628000000000	-0.619000000000	1.796436115490	0.038653495266	46.475386070686
264	1	-0.931000000000	0.344000000000	-0.124000000000	1.909107383374	0.038509148012	49.575425111731
265	1	-0.963000000000	-0.258000000000	-0.071000000000	1.909107383374	0.038558646066	49.511784726623
266	-1	-0.628000000000	-0.619000000000	0.471000000000	0.000000000000	0.038653495266	0.000000000000
267	1	-0.071000000000	-0.963000000000	-0.258000000000	1.683808785057	0.038558646066	43.668773591561
268	1	0.471000000000	-0.628000000000	-0.619000000000	1.791186568316	0.038653495266	46.339575657235
269	1	0.344000000000	-0.124000000000	-0.931000000000	1.586840610386	0.038509148012	41.206848042981
270	1	-0.258000000000	-0.071000000000	-0.963000000000	0.910599735936	0.038558646066	23.615967593237
271	1	-0.504000000000	-0.542000000000	-0.672000000000	1.747822983818	0.038572414466	45.312771005437
272	-1	0.365000000000	-0.243000000000	0.899000000000	0.000000000000	0.036265964996	0.000000000000
273	-1	0.759000000000	0.451000000000	0.470000000000	0.000000000000	0.036372252023	0.000000000000
274	-1	0.104000000000	0.985000000000	0.140000000000	0.000000000000	0.036298811695	0.000000000000
275	-1	-0.694000000000	0.620000000000	0.366000000000	0.000000000000	0.036304882832	0.000000000000
276	-1	-0.533000000000	-0.139000000000	0.835000000000	0.000000000000	0.036302988869	0.000000000000
277	-1	-0.104000000000	-0.985000000000	0.140000000000	0.000000000000	0.036298811695	0.000000000000
278	-1	0.694000000000	-0.620000000000	0.366000000000	0.000000000000	0.036304882832	0.000000000000
279	1	0.835000000000	-0.533000000000	-0.139000000000	1.905102779030	0.036302988869	52.477849301115
280	1	0.899000000000	0.365000000000	-0.243000000000	1.683808785057	0.036265964996	46.429449353596
281	1	0.620000000000	0.366000000000	-0.694000000000	1.744582641290	0.036304882832	48.053664003641
282	1	-0.139000000000	0.835000000000	-0.533000000000	1.793015188148	0.036302988869	49.390291103418
283	1	-0.451000000000	0.470000000000	-0.759000000000	1.361436976897	0.036372252023	37.430648397750
284	1	-0.985000000000	0.140000000000	-0.104000000000	1.901978030446	0.036298811695	52.397804270243
285	1	-0.899000000000	-0.365000000000	-0.243000000000	1.678394079171	0.036265964996	46.280143912903
286	-1	-0.470000000000	-0.759000000000	0.451000000000	0.000000000000	0.036372252023	0.000000000000
287	1	-0.243000000000	-0.899000000000	-0.365000000000	1.361950157761	0.036265964996	37.554499319082
288	1	0.451000000000	-0.470000000000	-0.759000000000	1.359686918215	0.036372252023	37.382533183962
289	1	0.140000000000	-0.104000000000	-0.985000000000	0.910599735936	0.036298811695	25.086213388548
290	1	-0.365000000000	-0.243000000000	-0.899000000000	1.586911092144	0.036265964996	43.757586274183
291	1	-0.366000000000	-0.694000000000	-0.620000000000	1.793015188148	0.036304882832	49.387714497137
292	-1	0.055000000000	-0.085000000000	0.995000000000	0.000000000000	0.035367339728	0.000000000000
293	-1	0.583000000000	0.309000000000	0.751000000000	0.000000000000	0.035350898789	0.000000000000
294	-1	0.305000000000	0.859000000000	0.412000000000	0.000000000000	0.035355553908	0.000000000000
295	-1	-0.394000000000	0.804000000000	0.446000000000	0.000000000000	0.035322380215	0.000000000000
296	-1	-0.549000000000	0.221000000000	0.806000000000	0.000000000000	0.035387987088	0.000000000000
297	-1	-0.305000000000	-0.859000000000	0.412000000000	0.000000000000	0.035355553908	0.000000000000
298	-1	0.394000000000	-0.804000000000	0.446000000000	0.000000000000	0.035322380215	0.000000000000
299	-1	0.806000000000	-0.549000000000	0.221000000000	0.000000000000	0.035387987088	0.000000000000
300	1	0.995000000000	0.055000000000	-0.085000000000	1.909107383374	0.035367339728	53.979388838255
301	1	0.804000000000	0.446000000000	-0.394000000000	1.358348613162	0.035322380215	38.455749722682
302	1	0.221000000000	0.806000000000	-0.549000000000	1.791186568316	0.035387987088	50.615666946096