LAMMPS data file
12212 atoms
3 atom types
-5.3956 5.3956 xlo xhi
-5.3956 5.3956 ylo yhi
-5.3956 5.3956 zlo zhi

Atoms

1 1 -0.4106558539089534 -0.9120798149516954 0.018686380280570805 0.062339215916010944 0.03 8841.941282883074
2 1 -0.41791520215713535 -0.3200425452422757 -0.8507623951731806 0.07121775050523105 0.03 8841.941282883074
3 1 0.45363431354019107 0.26911363397154847 -0.8501004420593766 0.10221788050080018 0.03 8841.941282883074
4 1 0.9993985906888123 0.04109871833911128 0.01975733484301788 0.04389508972636145 0.03 8841.941282883074
5 1 0.46521589212611886 -0.6888279207342628 0.5567470424979482 0.09605723474632515 0.03 8841.941282883074
6 1 -0.4536343135401909 -0.26911363397154864 0.8501004420593764 0.07909303546665426 0.03 8841.941282883074
7 1 -0.9993985906888121 -0.041098718339111454 -0.019757334843018094 0.08528943267926559 0.03 8841.941282883074
8 1 -0.4652158921261187 0.6888279207342626 -0.5567470424979484 0.10111402556992896 0.03 8841.941282883074
9 1 0.41065585390895354 0.9120798149516953 -0.018686380280571027 0.06251017710301365 0.03 8841.941282883074
10 1 0.4179152021571355 0.3200425452422756 0.8507623951731804 0.07140443408713755 0.03 8841.941282883074
11 1 -0.4872937447553634 0.7203068952682256 0.4945500813379213 0.09052741064648068 0.03 8841.941282883074
12 1 -0.12821284189158735 -0.9761349224426559 -0.17559920376230026 0.10383257524595631 0.03 8841.941282883074
13 1 -0.13431493170483053 -0.5217428299663742 -0.842769789740832 0.10209034307785203 0.03 8841.941282883074
14 1 0.535088118374485 -0.06923504212914047 -0.8422613694785188 0.07535618870672099 0.03 8841.941282883074
15 1 0.9537678306376032 -0.24473000794336472 -0.17477742546702657 0.06644490452539797 0.03 8841.941282883074
16 1 0.5436496322018767 -0.804497852402908 0.23764107996277478 0.0774870195922666 0.03 8841.941282883074
17 1 -0.17020193550331764 -0.47057453485888695 0.8660877024258379 0.08264876369358828 0.03 8841.941282883074
18 1 -0.13669140887087905 -0.9640460386862671 0.2281308704104102 0.10330298189622521 0.03 8841.941282883074
19 1 -0.9241188295600893 -0.38103205126862355 -0.007997797103972564 0.09827437526370518 0.03 8841.941282883074
20 1 -0.4780306804777756 -0.5956064284339462 -0.6456412710864401 0.09740996247090103 0.03 8841.941282883074
21 1 -0.5174764038676416 0.40566678372341425 -0.7535022442061566 0.06644490452539797 0.03 8841.941282883074
22 1 0.18789659685826104 0.08383234993578204 -0.9782187924965096 0.08816474518153171 0.03 8841.941282883074
23 1 0.48908759526548 0.8035577476817789 -0.3400077503499251 0.09257968875935345 0.03 8841.941282883074
24 1 0.9412778341610368 0.13459127804017465 -0.31048063835386064 0.08229263499978909 0.03 8841.941282883074
25 1 0.7041257999255541 0.26112319361314396 0.6604048270844721 0.08263143861523504 0.03 8841.941282883074
26 1 0.7400957505721414 -0.513219028011722 0.43517985853180596 0.093980405593158 0.03 8841.941282883074
27 1 -0.5481167696838938 0.4493543339321461 0.7055222812694797 0.08494442510507973 0.03 8841.941282883074
28 1 -0.9412778341610366 -0.13459127804017482 0.3104806383538604 0.09954545641808969 0.03 8841.941282883074
29 1 -0.7400957505721413 0.5132190280117219 -0.4351798585318062 0.07967788699096215 0.03 8841.941282883074
30 1 0.1366914088708792 0.9640460386862669 -0.2281308704104104 0.08591356705955344 0.03 8841.941282883074
31 1 0.47803068047777575 0.5956064284339462 0.6456412710864398 0.09102035308058991 0.03 8841.941282883074
32 1 -0.17452516520067918 -0.9755210901360515 -0.1365634263316724 0.05662206746311337 0.03 8841.941282883074
33 1 -0.18764775631396052 -0.4964092618796583 -0.8476503785585363 0.08841117774574685 0.03 8841.941282883074
34 1 0.5188705105314927 -0.01308964014167481 -0.8542897954568756 0.08558718661006533 0.03 8841.941282883074
35 1 0.9695287311362368 -0.19307899270799125 -0.1489749713080248 0.09180914714411571 0.03 8841.941282883074
36 1 0.5417848271590481 -0.7875189700714973 0.2951322971783491 0.06617240115330687 0.03 8841.941282883074
37 1 -0.21666416275475903 -0.43399191135147686 0.8740232613948391 0.0675950504959913 0.03 8841.941282883074
38 1 -0.18938864076444686 -0.9610537531835887 0.1999165481923239 0.08411042342727626 0.03 8841.941282883074
39 1 -0.9459758237142722 -0.325492350004763 -0.002114482556445708 0.10435733066993776 0.03 8841.941282883074
40 1 -0.4789071188607127 -0.5496254899239098 -0.6850618894161562 0.09528537225101569 0.03 8841.941282883074
41 1 -0.5193052319643062 0.4565481801645953 -0.722042128440505 0.08561370327830069 0.03 8841.941282883074
42 1 0.23119784964535786 0.12332677373449302 -0.9654833303582222 0.08279206050931297 0.03 8841.941282883074
43 1 0.47371344693810813 0.8316017867856298 -0.2901362411091807 0.09935077063875523 0.03 8841.941282883074
44 1 0.9584608233927604 0.1269645904232675 -0.25385397928715775 0.09170012981612526 0.03 8841.941282883074
45 1 0.6602309275267529 0.2813765590280187 0.6969019689789343 0.08142769052905126 0.03 8841.941282883074
46 1 0.6988931529779385 -0.5433668789563266 0.4652373540181584 0.08558718661006533 0.03 8841.941282883074
47 1 -0.5357197136515842 0.50246892944211 0.6791755026135473 0.08312515229172941 0.03 8841.941282883074
48 1 -0.9594821689199685 -0.11295958920034219 0.2584165217866755 0.09123568622227446 0.03 8841.941282883074
49 1 -0.6989201356875614 0.5523216282593347 -0.4534980296400842 0.08971627826407626 0.03 8841.941282883074
50 1 0.18132480802565581 0.9658260447472642 -0.18722009849990745 0.0993700843381125 0.03 8841.941282883074
51 1 0.46492008167988236 0.5560279811029863 0.6885791180985004 0.09977292396909296 0.03 8841.941282883074
52 1 -0.21918154962661612 -0.9702132568483074 -0.09863409420213903 0.08263143861523504 0.03 8841.941282883074
53 1 -0.2402150714574922 -0.4704258904632696 -0.8495323425429502 0.08762836091080806 0.03 8841.941282883074
54 1 0.5023211152961002 0.04175756759462691 -0.863284311612497 0.09069892417239275 0.03 8841.941282883074
55 1 0.9822235963340142 -0.1422502288666244 -0.12221161643669336 0.0831039474650156 0.03 8841.941282883074
56 1 0.5368949605596051 -0.7678482528939188 0.3504780476056346 0.10144361840268223 0.03 8841.941282883074
57 1 -0.2616753198442567 -0.39776695119102545 0.8789979974519865 0.10202575766867356 0.03 8841.941282883074
58 1 -0.24013912012670172 -0.955583358688781 0.17066823835102665 0.08590949077364068 0.03 8841.941282883074
59 1 -0.9633786720614417 -0.26939829175506963 0.0028451039671900085 0.10200255269566408 0.03 8841.941282883074
60 1 -0.4768224547024381 -0.5026726851218917 -0.7204467491243814 0.08536701415320751 0.03 8841.941282883074
61 1 -0.5186476533371995 0.5055357475790749 -0.6894724212087691 0.09415547894760465 0.03 8841.941282883074
62 1 0.2733178593667401 0.16099289187074745 -0.9487152557634335 0.09827437526370518 0.03 8841.941282883074
63 1 0.4564135326313521 0.8571377939177564 -0.24023007611198935 0.08800844469830489 0.03 8841.941282883074
64 1 0.972619750427485 0.11845580545316368 -0.1982650832416535 0.08575191880022112 0.03 8841.941282883074
65 1 0.6144942353562834 0.2990022005527891 0.7294364391627871 0.09545631591944105 0.03 8841.941282883074
66 1 0.6560326177813495 -0.5710608664833419 0.49418588727142476 0.06690905129691593 0.03 8841.941282883074
67 1 -0.5218496015457864 0.5516220064261557 0.6499762729460874 0.09926884017434913 0.03 8841.941282883074
68 1 -0.9746414549299728 -0.09047572598690791 0.2063908363739251 0.07809674592720776 0.03 8841.941282883074
69 1 -0.6569150523219804 0.5884103306984707 -0.47070786774827394 0.05686812526659289 0.03 8841.941282883074
70 1 0.22434424140113546 0.962852203867932 -0.1472015450218383 0.09952215343151576 0.03 8841.941282883074
71 1 0.45160361480116223 0.5149718016432927 0.7285548837327117 0.056734635810089244 0.03 8841.941282883074
72 1 -0.26133154013646825 -0.9632552433674952 -0.061702206240376076 0.0715088644216386 0.03 8841.941282883074
73 1 -0.29035993889265466 -0.44267264693543296 -0.8484144232280778 0.08796783802145537 0.03 8841.941282883074
74 1 0.48407280871407915 0.09554455250834332 -0.8702814225005862 0.0788135063174113 0.03 8841.941282883074
75 1 0.9905272753805647 -0.09206559094987543 -0.09752252914176318 0.06226777533225506 0.03 8841.941282883074
76 1 0.5304101160135626 -0.7458134412375362 0.4017168401995415 0.09556616094185462 0.03 8841.941282883074
77 1 -0.3049875655871258 -0.3604817682079888 0.8819753282416015 0.06630039866089509 0.03 8841.941282883074
78 1 -0.2887369788768167 -0.9461571230731098 0.143348022264368 0.0774870195922666 0.03 8841.941282883074
79 1 -0.9760575475053684 -0.21493584552895886 0.007952752011582163 0.086187207090221 0.03 8841.941282883074
80 1 -0.47424110881517856 -0.45645804018014985 -0.7527970697768738 0.08750833210369824 0.03 8841.941282883074
81 1 -0.5174504205176342 0.5501513769747239 -0.6547591348877381 0.06682845346962998 0.03 8841.941282883074
82 1 0.3120610329467943 0.19650864138223617 -0.9289517025003443 0.08558718661006533 0.03 8841.941282883074
83 1 0.4383071351147553 0.8785099114800357 -0.1902161684474697 0.09388699696634698 0.03 8841.941282883074
84 1 0.9840024564498957 0.11048280929940736 -0.14275053257302645 0.10144361840268223 0.03 8841.941282883074
85 1 0.5693801442263726 0.31571014433971306 0.7590094572017881 0.08270428337746882 0.03 8841.941282883074
86 1 0.611556118086232 -0.5963608365519579 0.5200267945580768 0.07776966386009174 0.03 8841.941282883074
87 1 -0.5071290344070586 0.5977312626221295 0.6208860444119513 0.09673711724112675 0.03 8841.941282883074
88 1 -0.9856364094215058 -0.06879554599799492 0.15447666902649043 0.0675950504959913 0.03 8841.941282883074
89 1 -0.613832659290714 0.622903021498674 -0.48584595521205415 0.08556324935884604 0.03 8841.941282883074
90 1 0.2648992539643881 0.9581683368363413 -0.10818421110952703 0.08776882401650411 0.03 8841.941282883074
91 1 0.4355948731178438 0.47433171908156624 0.7644589765229889 0.09136560108482479 0.03 8841.941282883074
92 1 -0.300706308993622 -0.953259086503666 -0.025803676668826263 0.06115336055923107 0.03 8841.941282883074
93 1 -0.33777055841936116 -0.4153953462647536 -0.8452234948028 0.08814512915910883 0.03 8841.941282883074
94 1 0.46520290045111523 0.14667530296054174 -0.873209377476733 0.08558605489377161 0.03 8841.941282883074
95 1 0.9963455470629594 -0.04356105620578941 -0.07283532954582674 0.07191787156411793 0.03 8841.941282883074
96 1 0.5225791340652212 -0.7235705811321699 0.45091979637148155 0.08139609351135065 0.03 8841.941282883074
97 1 -0.3454396441099652 -0.32385206595967975 0.881029676941037 0.08567853275583008 0.03 8841.941282883074
98 1 -0.33484943026277586 -0.9350507842847755 0.116029693876703 0.10353315719829484 0.03 8841.941282883074
99 1 -0.9867676845064373 -0.16159914548967813 0.012134784333089444 0.08820455312238432 0.03 8841.941282883074
100 1 -0.47035559862947757 -0.4103915977282016 -0.781112890273871 0.07253271378605035 0.03 8841.941282883074
101 1 -0.5145742635437539 0.5922832199731884 -0.6199362182003851 0.07277461018354693 0.03 8841.941282883074
102 1 0.34968592311692076 0.23010631629248324 -0.9081535323810458 0.09127845090360603 0.03 8841.941282883074
103 1 0.4197050552287893 0.8970462567032268 -0.14212909607159285 0.0820458280713378 0.03 8841.941282883074
104 1 0.9909939763210798 0.10186568722103306 -0.08931024948080064 0.08461585605084035 0.03 8841.941282883074
105 1 0.5240811715675637 0.3309104330183078 0.7846210619961754 0.07251847479246235 0.03 8841.941282883074
106 1 0.5676592469681996 -0.6189447261998662 0.543797209666315 0.06226777533225506 0.03 8841.941282883074
107 1 -0.49097738429870025 0.6399388462513751 0.590942028599816 0.09934784962288307 0.03 8841.941282883074
108 1 -0.993897116004583 -0.0475913088662392 0.10463551078946125 0.10211629502243177 0.03 8841.941282883074
109 1 -0.5702106120669891 0.6530237742800463 -0.4988404635865393 0.07253271378605035 0.03 8841.941282883074
110 1 0.3027210179788004 0.9503864804625437 -0.07013218254053087 0.09601220864841076 0.03 8841.941282883074
111 1 0.4196490910903122 0.4336018675810549 0.797365073712974 0.06703355991531816 0.03 8841.941282883074
112 1 -0.3389418078889192 -0.9413747780181901 0.008060904179750417 0.07557145231244183 0.03 8841.941282883074
113 1 -0.3816394474681551 -0.388004031080749 -0.8389595961673549 0.0777911432850611 0.03 8841.941282883074
114 1 0.4457533636110664 0.19508997299203198 -0.8740668402744664 0.10209034307785203 0.03 8841.941282883074
115 1 0.9988499422598129 0.0027033409747457453 -0.048150646881881955 0.07559174318263208 0.03 8841.941282883074
116 1 0.5145202981245082 -0.6992015979765782 0.49705229926524575 0.10144361840268223 0.03 8841.941282883074
117 1 -0.38307352851663257 -0.2878179984869081 0.8781597072838215 0.10175974425545214 0.03 8841.941282883074
118 1 -0.37764800516319375 -0.9217043079328906 0.0887138824210297 0.09970193768331798 0.03 8841.941282883074
119 1 -0.9941629456623495 -0.10959624008621126 0.0174270373536787 0.09223251897779067 0.03 8841.941282883074
120 1 -0.4645643096567059 -0.3653611325242984 -0.8073563308934605 0.09556616094185462 0.03 8841.941282883074
121 1 -0.5094595410307865 0.6311033477754074 -0.5849671276912695 0.09052741064648068 0.03 8841.941282883074
122 1 0.3842237914342618 0.2629116627883188 -0.8853951296826535 0.10353315719829484 0.03 8841.941282883074
123 1 0.4003384652368406 0.9113588663973807 -0.095932944761916 0.10173640669579542 0.03 8841.941282883074
124 1 0.9952512482838075 0.09372450799981624 -0.03794297549898028 0.09621542987905284 0.03 8841.941282883074
125 1 0.47911498566077093 0.343834983748702 0.8083064607349179 0.09565031247259527 0.03 8841.941282883074
126 1 0.5238033495944092 -0.6380145296075999 0.5644612572739345 0.07962962929630939 0.03 8841.941282883074
127 1 -0.47534240311164005 0.6793405805211277 0.5600705093658018 0.07726308530433001 0.03 8841.941282883074
128 1 -0.9980354641730468 -0.02713090899981467 0.05690453435127608 0.09635332356231298 0.03 8841.941282883074
129 1 -0.5271681934203492 0.6804284466407106 -0.5097644797826105 0.08673342790308881 0.03 8841.941282883074
130 1 0.33948745823907184 0.9405967805487195 -0.034043532715618136 0.09903206025970994 0.03 8841.941282883074
131 1 0.4037872552704964 0.39275232416216344 0.8262738434359024 0.09488623602942267 0.03 8841.941282883074
132 1 -0.373842443746746 -0.9272802549487588 0.04092867009355461 0.10504679171749026 0.03 8841.941282883074
133 1 -0.42275310205656386 -0.3611185817334968 -0.8316220202882683 0.09528537225101569 0.03 8841.941282883074
134 1 0.4257032116420035 0.24081848558240923 -0.8718544790270215 0.09102035308058991 0.03 8841.941282883074
135 1 0.9989109031963684 0.04722778902342805 -0.025466515650459154 0.07762348445097372 0.03 8841.941282883074
136 1 0.5045976565005823 -0.6738564835321313 0.5391137585480742 0.09376290637347941 0.03 8841.941282883074
137 1 -0.4178682322551991 -0.2524094887692689 0.8723660874031907 0.08703172455461307 0.03 8841.941282883074
138 1 -0.4180031458033137 -0.9066178824491526 0.06339862239787841 0.08678133137233034 0.03 8841.941282883074
139 1 -0.9976417164844751 -0.059814904076809644 0.021867390795262346 0.08856744914880534 0.03 8841.941282883074
140 1 -0.4582973255068783 -0.32103890420107667 -0.8295659005905528 0.09977292396909296 0.03 8841.941282883074
141 1 -0.5043228326062746 0.666319620398667 -0.5498896652818275 0.07726308530433001 0.03 8841.941282883074
142 1 0.4159654515469754 0.29270878888073226 -0.8606040367272839 0.1026132844869321 0.03 8841.941282883074
143 1 0.38130466199690777 0.9233957381433342 -0.051662999507883944 0.08229263499978909 0.03 8841.941282883074
144 1 0.9959458032166938 0.08549923724486908 0.011350660139436726 0.08820455312238432 0.03 8841.941282883074
145 1 0.43479238734646575 0.3558119137616549 0.8280310754620442 0.07928267090539418 0.03 8841.941282883074
146 1 0.4810867221824757 -0.6551961813936868 0.5830913561585809 0.09237867221179745 0.03 8841.941282883074
147 1 -0.45829732550687824 0.7148705652037468 0.5293445347205529 0.08558718661006533 0.03 8841.941282883074
148 1 -1.0002680335544396 -0.007706486381435227 0.01124593779049844 0.0670568695161742 0.03 8841.941282883074
149 1 -0.4841457619660225 0.7042891097816054 -0.5185814603448274 0.08789145175175708 0.03 8841.941282883074
150 1 0.37296100856573067 0.9285370200917493 0.00104326831053881 0.0827622688555643 0.03 8841.941282883074
151 1 0.38686909633692385 0.3534688694026096 0.8521115306476571 0.06226777533225506 0.03 8841.941282883074
152 1 0.2168910173875149 -0.9025392183832576 -0.3726905497282539 0.07276974012905028 0.03 8841.941282883074
153 1 0.21341524464423617 -0.6756082278507631 -0.7057764914006366 0.08245204434807467 0.03 8841.941282883074
154 1 0.548116769683894 -0.44935433393214624 -0.70552228126948 0.09605723474632515 0.03 8841.941282883074
155 1 0.7570528845307247 -0.5373967955244996 -0.3722802898136149 0.09940083000823907 0.03 8841.941282883074
156 1 0.5521281991811684 -0.8165867361592969 -0.16608899420993564 0.08917791404396065 0.03 8841.941282883074
157 1 0.18277487882798402 -0.6319206776420313 0.7532480340749997 0.08764966421404134 0.03 8841.941282883074
158 1 0.1999338834289315 -0.8783614508704801 0.43476959861716696 0.08655107560096237 0.03 8841.941282883074
159 1 -0.6980237101123108 -0.7155152860894257 0.006765758894059677 0.08665160841275539 0.03 8841.941282883074
160 1 -0.47540436340781106 -0.8230675303777335 -0.31155662678029095 0.09389348342485185 0.03 8841.941282883074
161 1 -0.4992011145759977 0.018066747021653035 -0.8665961226881516 0.09556616094185462 0.03 8841.941282883074
162 1 -0.14680492818139668 -0.14242154398283485 -0.9784730026276661 0.07255475825690097 0.03 8841.941282883074
163 1 0.5054391172969711 0.5565270170828477 -0.6594861469075199 0.08575191880022112 0.03 8841.941282883074
164 1 0.7315342367447496 0.22204378226204546 -0.6447225909094878 0.08263143861523504 0.03 8841.941282883074
165 1 0.9275946023033681 0.15410106073612884 0.34108373877635517 0.09158851080069 0.03 8841.941282883074
166 1 0.9452892636583115 -0.23264112418697588 0.22895264870568385 0.09621542987905284 0.03 8841.941282883074
167 1 -0.5350881183744848 0.0692350421291403 0.8422613694785185 0.09093883137591563 0.03 8841.941282883074
168 1 -0.7315342367447495 -0.22204378226204563 0.6447225909094876 0.06221830987996055 0.03 8841.941282883074
169 1 -0.9452892636583112 0.2326411241869757 -0.2289526487056841 0.0827622688555643 0.03 8841.941282883074
170 1 -0.19993388342893134 0.8783614508704799 -0.4347695986171672 0.07253271378605035 0.03 8841.941282883074
171 1 0.4754043634078112 0.8230675303777333 0.3115566267802907 0.09257968875935345 0.03 8841.941282883074
172 1 0.17058868767457966 -0.9251459411975246 -0.3399639497405749 0.08473349439864399 0.03 8841.941282883074
173 1 0.1592019842137063 -0.6650206456636121 -0.7302474026407573 0.05710005921547739 0.03 8841.941282883074
174 1 0.5451027010830518 -0.39843433319915494 -0.7371303327092886 0.06221830987996055 0.03 8841.941282883074
175 1 0.7951714583509891 -0.4938154838764354 -0.3517706919398544 0.10123565885646357 0.03 8841.941282883074
176 1 0.5636738008209323 -0.8194482220257644 -0.10672140219702093 0.08591356705955344 0.03 8841.941282883074
177 1 0.1354212227993705 -0.6083270864594973 0.7815671745251479 0.09542090291385336 0.03 8841.941282883074
178 1 0.14614535083505872 -0.8987607561448252 0.41323678399106756 0.0788135063174113 0.03 8841.941282883074
179 1 -0.7403236045645126 -0.6725884814078078 0.012597428394195944 0.0982242616201385 0.03 8841.941282883074
180 1 -0.48783140022859045 -0.7939117456227276 -0.36372471061681655 0.07750238678949763 0.03 8841.941282883074
181 1 -0.5134369923011284 0.07661040369206226 -0.8546386961651751 0.0820458280713378 0.03 8841.941282883074
182 1 -0.10217152902661995 -0.1030852373035167 -0.9897208760587203 0.08139609351135065 0.03 8841.941282883074
183 1 0.501828431005578 0.6028939504204591 -0.620923594640189 0.07168816863761507 0.03 8841.941282883074
184 1 0.769994591553571 0.2186651992948552 -0.5987836500737068 0.09976017023031639 0.03 8841.941282883074
185 1 0.9030853077292134 0.1795885767191749 0.39083995455379633 0.09565031247259527 0.03 8841.941282883074
186 1 0.9242037751274209 -0.27291786599668866 0.26874192166470406 0.08255527256472081 0.03 8841.941282883074
187 1 -0.5361644286805547 0.12976100790299414 0.8344224267393905 0.088489989361683 0.03 8841.941282883074
188 1 -0.771575578465551 -0.20383226927286857 0.603309649117784 0.09621542987905284 0.03 8841.941282883074
189 1 -0.9242517443889725 0.2819025382792919 -0.2560032654198658 0.08163282134661554 0.03 8841.941282883074
190 1 -0.15501666614330614 0.9029430903380181 -0.4015402953984132 0.09505488683773636 0.03 8841.941282883074
191 1 0.4743830178806029 0.799516230982338 0.3682778146213656 0.07764717897300524 0.03 8841.941282883074
192 1 0.1228342884400849 -0.9438210684654681 -0.30538423060813263 0.09375994965366313 0.03 8841.941282883074
193 1 0.10268719858830264 -0.65103157934143 -0.7518664921023482 0.07644633917114987 0.03 8841.941282883074
194 1 0.541217190897351 -0.3444405886984969 -0.7678480534156572 0.10391759955367391 0.03 8841.941282883074
195 1 0.8307616523436241 -0.4482804972424797 -0.33037202179864966 0.09835676255028632 0.03 8841.941282883074
196 1 0.5729388638177514 -0.8189381467367967 -0.045501320272340724 0.09759212802566274 0.03 8841.941282883074
197 1 0.0855811600469854 -0.582839666250262 0.8087767235092118 0.08567853275583008 0.03 8841.941282883074
198 1 0.091527349760185 -0.9161461636106938 0.39059563636488 0.07644633917114987 0.03 8841.941282883074
199 1 -0.7804289053007165 -0.6257656815645164 0.018358527915442534 0.09631103332728087 0.03 8841.941282883074
200 1 -0.4980848298853011 -0.7608300427264533 -0.41496403256546777 0.08252094486264502 0.03 8841.941282883074
201 1 -0.5263477191758891 0.1349759348930828 -0.8396461013534678 0.08814729281957272 0.03 8841.941282883074
202 1 -0.055965137836788456 -0.06250916992404312 -0.996970163556722 0.08816474518153171 0.03 8841.941282883074
203 1 0.49564839114231296 0.6477004725037877 -0.578365602604795 0.09488623602942267 0.03 8841.941282883074
204 1 0.8081231589699922 0.21398842207650098 -0.5498107994151907 0.09257968875935345 0.03 8841.941282883074
205 1 0.874163840451903 0.20446188975719798 0.43952123462160037 0.09170012981612526 0.03 8841.941282883074
206 1 0.898125485956674 -0.31295095897276803 0.3084190473254107 0.06228352757463745 0.03 8841.941282883074
207 1 -0.5349402131513665 0.1904594217411817 0.8226239584546424 0.06228352757463745 0.03 8841.941282883074
208 1 -0.8090475666144809 -0.1840603450294085 0.5579012675580174 0.09073762896502129 0.03 8841.941282883074
209 1 -0.9001481898187774 0.3319862037656146 -0.28401478284637716 0.09375994965366313 0.03 8841.941282883074
210 1 -0.10873132554383719 0.9237128261776132 -0.3661667838573661 0.07254042573075158 0.03 8841.941282883074
211 1 0.4714568929259393 0.7734269766356232 0.42403432635212335 0.09762489604661655 0.03 8841.941282883074
212 1 0.07337997849934602 -0.9599824863566324 -0.26991480997524814 0.09158851080069 0.03 8841.941282883074
213 1 0.04583962621088299 -0.6347667750710477 -0.7715593755082943 0.07537077066904299 0.03 8841.941282883074
214 1 0.5333522307220769 -0.2881355058649884 -0.7947158789427279 0.0924643907270695 0.03 8841.941282883074
215 1 0.863263825123858 -0.3999639068235711 -0.3081208228454415 0.07967788699096215 0.03 8841.941282883074
216 1 0.5790949190502404 -0.8156165446832808 0.01757062233110717 0.09620867217299257 0.03 8841.941282883074
217 1 0.03524341620599969 -0.5530401539813856 0.8318440296704522 0.08245204434807467 0.03 8841.941282883074
218 1 0.0355202388195386 -0.929689744469024 0.36680961228316344 0.0774870195922666 0.03 8841.941282883074
219 1 -0.818318625768994 -0.5750768095391466 0.02304972559103529 0.10391759955367391 0.03 8841.941282883074
220 1 -0.5064124935626275 -0.7252403078584547 -0.46623801027056583 0.09170012981612526 0.03 8841.941282883074
221 1 -0.5379542817522086 0.1931932636043097 -0.8206190063862655 0.09762489604661655 0.03 8841.941282883074
222 1 -0.007626113227130388 -0.021521270643475525 -1.0001843216662305 0.08789145175175708 0.03 8841.941282883074
223 1 0.4883290813171913 0.6906188429654694 -0.5337736618464279 0.09542090291385336 0.03 8841.941282883074
224 1 0.8417346209236126 0.20884705681109889 -0.49691622513249106 0.08530647448719285 0.03 8841.941282883074
225 1 0.842197324425665 0.22848302842161958 0.48816408353496993 0.07537077066904299 0.03 8841.941282883074
226 1 0.8692919623255421 -0.35247818611209486 0.34702249574247596 0.08556324935884604 0.03 8841.941282883074
227 1 -0.5328245688450062 0.25162810103147204 0.8078281238025997 0.09838776959122104 0.03 8841.941282883074
228 1 -0.8442610020320107 -0.1640561267624246 0.5105320241861591 0.08142769052905126 0.03 8841.941282883074
229 1 -0.8705341663278119 0.3810581375784324 -0.3098789457856059 0.1026132844869321 0.03 8841.941282883074
230 1 -0.060788047341981975 0.9420286985996192 -0.32968431008323285 0.07081708881037252 0.03 8841.941282883074
231 1 0.46579751942243525 0.7442397329467013 0.4788255327395659 0.10158368279460407 0.03 8841.941282883074
232 1 0.02384072299127578 -0.9724502801300524 -0.23155576564239752 0.07975693161905556 0.03 8841.941282883074
233 1 -0.012749829976638684 -0.6159284154646962 -0.78836389368027 0.09169383474067873 0.03 8841.941282883074
234 1 0.5243260146734015 -0.2301147194741671 -0.8196581276471516 0.09630859141685671 0.03 8841.941282883074
235 1 0.8931956449726045 -0.34963379545958084 -0.2829818878912608 0.09026900474501302 0.03 8841.941282883074
236 1 0.5838408778650278 -0.8084231930426318 0.08049702034579029 0.06115336055923107 0.03 8841.941282883074
237 1 -0.016171637300671525 -0.5216446300735766 0.8528395851872831 0.09971246617352778 0.03 8841.941282883074
238 1 -0.0212743674982509 -0.9402792734780674 0.33991659146783043 0.08558718661006533 0.03 8841.941282883074
239 1 -0.8529154563036591 -0.5221178769706312 0.028742772065383816 0.07768733064264237 0.03 8841.941282883074
240 1 -0.5139756471339713 -0.6854268374614189 -0.515621066909464 0.0610441894207001 0.03 8841.941282883074
241 1 -0.5465787552353871 0.25235253562792326 -0.7985554846643363 0.07059894451054688 0.03 8841.941282883074
242 1 0.04006932379004019 0.020414249354533568 -0.9994376957641233 0.07254042573075158 0.03 8841.941282883074
243 1 0.47846140447212687 0.7319468791932735 -0.48618561318676234 0.09200275844214137 0.03 8841.941282883074
244 1 0.8736471715306048 0.20264546872311165 -0.44202424558225895 0.09537994745759726 0.03 8841.941282883074
245 1 0.8061084499848139 0.25324800435137224 0.5346967506494955 0.07762348445097372 0.03 8841.941282883074
246 1 0.836294107175939 -0.3912017300269005 0.3855144260942254 0.08461585605084035 0.03 8841.941282883074
247 1 -0.5270412747491598 0.3127312569575174 0.79010926816014 0.09073762896502129 0.03 8841.941282883074
248 1 -0.8769260704295976 -0.1424615742615628 0.4601666729130023 0.09935077063875523 0.03 8841.941282883074
249 1 -0.8381439218245325 0.42959428257490273 -0.3356687633479574 0.0717295926943157 0.03 8841.941282883074
250 1 -0.01288574288436903 0.9568304847814509 -0.2900954688084811 0.08719270677963636 0.03 8841.941282883074
251 1 0.4593526492610194 0.7108586767083374 0.5327251499275727 0.08270428337746882 0.03 8841.941282883074
252 1 -0.025720518428339084 -0.9813142187245126 -0.19330509320987302 0.08591356705955344 0.03 8841.941282883074
253 1 -0.07088557689864902 -0.5941944375600663 -0.8012429128300746 0.06630039866089509 0.03 8841.941282883074
254 1 0.5138277419108532 -0.17170634675679203 -0.8406402215729573 0.07191787156411793 0.03 8841.941282883074
255 1 0.9192319610394935 -0.29711203768112043 -0.2579903852248386 0.0827622688555643 0.03 8841.941282883074
256 1 0.5863692576926571 -0.797948049185332 0.14227791267194656 0.09954545641808969 0.03 8841.941282883074
257 1 -0.06723391686301346 -0.48898083489419863 0.8698018990146147 0.07909303546665426 0.03 8841.941282883074
258 1 -0.07865060111235668 -0.9464370185090899 0.3128786552967305 0.09807211682101565 0.03 8841.941282883074
259 1 -0.8836387689680114 -0.4677467356376262 0.034474878927164686 0.09136560108482479 0.03 8841.941282883074
260 1 -0.519095366445017 -0.64387341793253 -0.5630035721158401 0.08255527256472081 0.03 8841.941282883074
261 1 -0.554167892156738 0.30997564197179417 -0.7724215485644692 0.07209744289847023 0.03 8841.941282883074
262 1 0.08685234547810972 0.06190942688003507 -0.9946943716279575 0.07780520907258062 0.03 8841.941282883074
263 1 0.4663571608072068 0.7694387662185939 -0.4365283308146786 0.09200275844214137 0.03 8841.941282883074
264 1 0.9016652177153552 0.19506159485023009 -0.386171994552695 0.0827622688555643 0.03 8841.941282883074
265 1 0.7675761412836647 0.2762730311492719 0.5792288663314991 0.08679324727523129 0.03 8841.941282883074
266 1 0.7994427213483363 -0.42779347348642593 0.4218602604246882 0.08263143861523504 0.03 8841.941282883074
267 1 -0.5200757382279831 0.3720887863466549 0.7694655038282691 0.08288816029228929 0.03 8841.941282883074
268 1 -0.9051160064682421 -0.12034258775446308 0.4078782617491902 0.09538278230742238 0.03 8841.941282883074
269 1 -0.8027076292127097 0.4754086697456103 -0.3603124459887843 0.05684617191468262 0.03 8841.941282883074
270 1 0.035038547484788525 0.9680284157843227 -0.25039825563340296 0.07975693161905556 0.03 8841.941282883074
271 1 0.4496358757179203 0.6751776369472327 0.5846235864500595 0.07909303546665426 0.03 8841.941282883074
272 1 -0.07503491802288505 -0.9851863389500644 -0.1551987069001175 0.0909477463576806 0.03 8841.941282883074
273 1 -0.12798698661844726 -0.5704226931358148 -0.8111592213690318 0.09503900977674666 0.03 8841.941282883074
274 1 0.5004902884802042 -0.11267241628428445 -0.8586986652753477 0.08881703331793528 0.03 8841.941282883074
275 1 0.9416216138688253 -0.24455467951801002 -0.23107519343476327 0.08561370327830069 0.03 8841.941282883074
276 1 0.5866590719811996 -0.7841611901317869 0.20391263117634012 0.09123388706940369 0.03 8841.941282883074
277 1 -0.11769558129634144 -0.4536308822737076 0.8836943887967683 0.08881703331793528 0.03 8841.941282883074