ITEM: TIMESTEP
-1
ITEM: NUMBER OF ATOMS
972
ITEM: BOX BOUNDS
-1	1
-1	1
-1	1
ITEM: ATOMS index type x y z Vq Va Vq/a
0	1	0.851000000000	0.000000000000	0.526000000000	0.881184202829	0.006721737228	131.094711512521
1	1	0.526000000000	0.851000000000	0.000000000000	0.991023181666	0.006721737228	147.435573272426
2	1	-0.526000000000	0.851000000000	0.000000000000	0.768903546713	0.006721737228	114.390598825574
3	1	-0.851000000000	0.000000000000	0.526000000000	1.066039437423	0.006721737228	158.595821465338
4	1	0.000000000000	-0.526000000000	0.851000000000	0.972943738751	0.006721737228	144.745875311836
5	1	0.526000000000	-0.851000000000	0.000000000000	1.097117694951	0.006721737228	163.219366907715
6	1	0.851000000000	0.000000000000	-0.526000000000	0.670066100417	0.006721737228	99.686446768366
7	1	0.000000000000	0.526000000000	-0.851000000000	1.041899863990	0.006721737228	155.004551439044
8	1	-0.851000000000	0.000000000000	-0.526000000000	0.962760688918	0.006721737228	143.230932152603
9	1	-0.526000000000	-0.851000000000	0.000000000000	1.039764417556	0.006721737228	154.686858800800
10	1	0.000000000000	-0.526000000000	-0.851000000000	0.908181441454	0.006721737228	135.111119430280
11	1	0.699000000000	0.142000000000	0.701000000000	0.990755546880	0.011880047365	83.396599056944
12	1	0.452000000000	0.853000000000	0.262000000000	0.963942647568	0.011875568962	81.170228613542
13	1	-0.419000000000	0.873000000000	0.250000000000	0.971544465919	0.011893177710	81.689224666758
14	1	-0.711000000000	0.174000000000	0.681000000000	1.046025947299	0.011912696076	87.807658370657
15	1	-0.020000000000	-0.278000000000	0.960000000000	0.671935349069	0.011951476363	56.221953563112
16	1	0.419000000000	-0.873000000000	0.250000000000	0.796033409731	0.011893177710	66.931936036727
17	1	0.711000000000	-0.174000000000	0.681000000000	0.906435896435	0.011912696076	76.089903634429
18	1	0.960000000000	-0.020000000000	-0.278000000000	0.972682256972	0.011951476363	81.385949941289
19	1	0.701000000000	0.699000000000	0.142000000000	1.040878476196	0.011880047365	87.615684029959
20	1	0.174000000000	0.681000000000	-0.711000000000	0.906748058452	0.011912696076	76.116107779584
21	1	-0.278000000000	0.960000000000	-0.020000000000	0.853257593324	0.011951476363	71.393488757043
22	1	-0.853000000000	0.262000000000	-0.452000000000	0.670646079164	0.011875568962	56.472753541749
23	1	-0.873000000000	0.250000000000	0.419000000000	0.670646079164	0.011893177710	56.389141366643
24	1	-0.701000000000	-0.699000000000	0.142000000000	0.670625441679	0.011880047365	56.449727940702
25	1	-0.262000000000	-0.452000000000	0.853000000000	0.793307715944	0.011875568962	66.801659649052
26	1	0.142000000000	-0.701000000000	-0.699000000000	0.770465915105	0.011880047365	64.853774688854
27	1	0.853000000000	-0.262000000000	-0.452000000000	0.670066100417	0.011875568962	56.423915566151
28	1	0.250000000000	0.419000000000	-0.873000000000	0.853579365808	0.011893177710	71.770504624773
29	1	-0.699000000000	0.142000000000	-0.701000000000	0.941821725604	0.011880047365	79.277606954290
30	1	-0.681000000000	-0.711000000000	-0.174000000000	0.972943738751	0.011912696076	81.672841526263
31	1	0.756000000000	0.054000000000	0.652000000000	1.042062890005	0.010697659883	97.410359034308
32	1	0.516000000000	0.840000000000	0.166000000000	0.770465915105	0.010713183525	71.917550304247
33	1	-0.438000000000	0.889000000000	0.136000000000	0.919666500647	0.010723281198	85.763534840086
34	1	-0.786000000000	0.132000000000	0.603000000000	0.919108100642	0.010670912613	86.132098907127
35	1	-0.048000000000	-0.384000000000	0.922000000000	1.094730304988	0.010701536284	102.296555931936
36	1	0.438000000000	-0.889000000000	0.136000000000	1.039764417556	0.010723281198	96.963270694106
37	1	0.786000000000	-0.132000000000	0.603000000000	0.972317920882	0.010670912613	91.118534666481
38	1	0.922000000000	-0.048000000000	-0.384000000000	0.990575979448	0.010701536284	92.563904209753
39	1	0.652000000000	0.756000000000	0.054000000000	0.971206395185	0.010697659883	90.786808127156
40	1	0.132000000000	0.603000000000	-0.786000000000	0.853257593324	0.010670912613	79.961070270325
41	1	-0.384000000000	0.922000000000	-0.048000000000	0.881695289869	0.010701536284	82.389599633836
42	1	-0.840000000000	0.166000000000	-0.516000000000	0.971206395185	0.010713183525	90.655256010860
43	1	-0.889000000000	0.136000000000	0.438000000000	0.670743019910	0.010723281198	62.550166083354
44	1	-0.652000000000	-0.756000000000	0.054000000000	0.944295695907	0.010697659883	88.271239341791
45	1	-0.166000000000	-0.516000000000	0.840000000000	1.044195218358	0.010713183525	97.468247032689
46	1	0.054000000000	-0.652000000000	-0.756000000000	0.916196062647	0.010697659883	85.644530924452
47	1	0.840000000000	-0.166000000000	-0.516000000000	0.987559764071	0.010713183525	92.181727469825
48	1	0.136000000000	0.438000000000	-0.889000000000	0.990575979448	0.010723281198	92.376201009147
49	1	-0.756000000000	0.054000000000	-0.652000000000	0.990575979448	0.010697659883	92.597445638161
50	1	-0.603000000000	-0.786000000000	-0.132000000000	0.972317920882	0.010670912613	91.118534666481
51	1	0.801000000000	-0.029000000000	0.598000000000	1.066011234615	0.009325924840	114.306221944078
52	1	0.570000000000	0.819000000000	0.074000000000	1.046025947299	0.009351940889	111.851214598573
53	1	-0.449000000000	0.893000000000	0.028000000000	1.037434502457	0.009333996937	111.145794186381
54	1	-0.847000000000	0.092000000000	0.523000000000	1.066650667877	0.009333709706	114.279391741687
55	1	-0.075000000000	-0.478000000000	0.875000000000	0.670625441679	0.009335346150	71.837233553547
56	1	0.449000000000	-0.893000000000	0.028000000000	0.768903546713	0.009333996937	82.376665851838
57	1	0.847000000000	-0.092000000000	0.523000000000	0.971206395185	0.009333709706	104.053632027703
58	1	0.875000000000	-0.075000000000	-0.478000000000	0.942109646428	0.009335346150	100.918555272932
59	1	0.598000000000	0.801000000000	-0.029000000000	0.972682256972	0.009325924840	104.298745018951
60	1	0.092000000000	0.523000000000	-0.847000000000	1.065493110440	0.009333709706	114.155372731742
61	1	-0.478000000000	0.875000000000	-0.075000000000	1.043961151819	0.009335346150	111.828863659396
62	1	-0.819000000000	0.074000000000	-0.570000000000	0.905559499820	0.009351940889	96.831183019569
63	1	-0.893000000000	0.028000000000	0.449000000000	1.040878476196	0.009333996937	111.514765138711
64	1	-0.598000000000	-0.801000000000	-0.029000000000	0.855925170079	0.009325924840	91.779119470379
65	1	-0.074000000000	-0.570000000000	0.819000000000	0.768903546713	0.009351940889	82.218606365400
66	1	-0.029000000000	-0.598000000000	-0.801000000000	0.794018850376	0.009325924840	85.141030405336
67	1	0.819000000000	-0.074000000000	-0.570000000000	0.962551875760	0.009351940889	102.925359256970
68	1	0.028000000000	0.449000000000	-0.893000000000	1.039764417556	0.009333996937	111.395410199173
69	1	-0.801000000000	-0.029000000000	-0.598000000000	1.044195218358	0.009325924840	111.966934781569
70	1	-0.523000000000	-0.847000000000	-0.092000000000	0.670646079164	0.009333709706	71.852039574830
71	1	0.357000000000	0.379000000000	0.854000000000	1.065493110440	0.012819612132	83.114301704269
72	1	0.231000000000	0.742000000000	0.629000000000	1.070955580536	0.012799842669	83.669433151832
73	1	-0.215000000000	0.752000000000	0.623000000000	0.793307715944	0.012792070904	62.015581521260
74	1	-0.364000000000	0.395000000000	0.844000000000	0.769740399040	0.012751541398	60.364498298039
75	1	-0.010000000000	0.164000000000	0.986000000000	0.971206395185	0.012843599310	75.617930123274
76	1	0.215000000000	-0.752000000000	0.623000000000	1.066039437423	0.012792070904	83.335954394091
77	1	0.364000000000	-0.395000000000	0.844000000000	0.906748058452	0.012751541398	71.108898142085
78	1	0.986000000000	-0.010000000000	0.164000000000	1.041899863990	0.012843599310	81.122109060716
79	1	0.854000000000	0.357000000000	0.379000000000	1.041706824379	0.012819612132	81.258841038531
80	1	0.395000000000	0.844000000000	-0.364000000000	0.793307715944	0.012751541398	62.212691874603
81	1	0.164000000000	0.986000000000	-0.010000000000	0.768625027979	0.012843599310	59.844986549633
82	1	-0.742000000000	0.629000000000	-0.231000000000	1.039764417556	0.012799842669	81.232593591639
83	1	-0.752000000000	0.623000000000	0.215000000000	0.882998760462	0.012792070904	69.027037695486
84	1	-0.854000000000	-0.357000000000	0.379000000000	1.041706824379	0.012819612132	81.258841038531
85	1	-0.629000000000	-0.231000000000	0.742000000000	0.972317920882	0.012799842669	75.963271271110
86	1	0.379000000000	-0.854000000000	-0.357000000000	0.670646079164	0.012819612132	52.314069433448
87	1	0.742000000000	-0.629000000000	-0.231000000000	0.972943738751	0.012799842669	76.012163893081
88	1	0.623000000000	0.215000000000	-0.752000000000	0.962551875760	0.012792070904	75.245977216521
89	1	-0.357000000000	0.379000000000	-0.854000000000	1.039764417556	0.012819612132	81.107322661576
90	1	-0.844000000000	-0.364000000000	-0.395000000000	0.991159449182	0.012751541398	77.728599093686
91	1	0.450000000000	0.297000000000	0.842000000000	1.094730304988	0.013444936993	81.423238024325
92	1	0.320000000000	0.773000000000	0.549000000000	0.919666500647	0.013371929191	68.775902677896
93	1	-0.252000000000	0.814000000000	0.523000000000	0.881184202829	0.013416074438	65.681224929952
94	1	-0.475000000000	0.365000000000	0.801000000000	1.066011234615	0.013396717790	79.572567796394
95	1	-0.042000000000	0.045000000000	0.998000000000	1.065493110440	0.013399624035	79.516642234607
96	1	0.252000000000	-0.814000000000	0.523000000000	0.766703241260	0.013416074438	57.148105789940
97	1	0.475000000000	-0.365000000000	0.801000000000	1.066039437423	0.013396717790	79.574672999184
98	1	0.998000000000	-0.042000000000	0.045000000000	0.853579365808	0.013399624035	63.701739959449
99	1	0.842000000000	0.450000000000	0.297000000000	0.882998760462	0.013444936993	65.675187688365
100	1	0.365000000000	0.801000000000	-0.475000000000	1.070955580536	0.013396717790	79.941639235972
101	1	0.045000000000	0.998000000000	-0.042000000000	0.991159449182	0.013399624035	73.969198435732
102	1	-0.773000000000	0.549000000000	-0.320000000000	0.882220851168	0.013371929191	65.975585016606
103	1	-0.814000000000	0.523000000000	0.252000000000	0.796481805818	0.013416074438	59.367724106505
104	1	-0.842000000000	-0.450000000000	0.297000000000	1.065493110440	0.013444936993	79.248650329023
105	1	-0.549000000000	-0.320000000000	0.773000000000	0.794018850376	0.013371929191	59.379528491488
106	1	0.297000000000	-0.842000000000	-0.450000000000	0.670066100417	0.013444936993	49.837801454515
107	1	0.773000000000	-0.549000000000	-0.320000000000	0.966016417193	0.013371929191	72.242112817411
108	1	0.523000000000	0.252000000000	-0.814000000000	0.972943738751	0.013416074438	72.520746903901
109	1	-0.450000000000	0.297000000000	-0.842000000000	0.881184202829	0.013444936993	65.540225536168
110	1	-0.801000000000	-0.475000000000	-0.365000000000	0.989454044309	0.013396717790	73.857944893603
111	1	0.538000000000	0.208000000000	0.817000000000	0.940675833224	0.013537711602	69.485586697448
112	1	0.406000000000	0.792000000000	0.457000000000	0.919108100642	0.013541350884	67.874180981294
113	1	-0.287000000000	0.865000000000	0.411000000000	0.794018850376	0.013532640803	58.674346120674
114	1	-0.583000000000	0.328000000000	0.743000000000	0.794311997025	0.013517170679	58.763184683085
115	1	-0.074000000000	-0.078000000000	0.994000000000	1.037434502457	0.013521875920	76.722675802725
116	1	0.287000000000	-0.865000000000	0.411000000000	0.916196062647	0.013532640803	67.702680948613
117	1	0.583000000000	-0.328000000000	0.743000000000	1.066039437423	0.013517170679	78.865574957176
118	1	0.994000000000	-0.074000000000	-0.078000000000	0.940675833224	0.013521875920	69.566962364346
119	1	0.817000000000	0.538000000000	0.208000000000	0.944295695907	0.013537711602	69.752977729932
120	1	0.328000000000	0.743000000000	-0.583000000000	0.853257593324	0.013517170679	63.123978646363
121	1	-0.078000000000	0.994000000000	-0.074000000000	1.066039437423	0.013521875920	78.838131907693
122	1	-0.792000000000	0.457000000000	-0.406000000000	0.989454044309	0.013541350884	73.069079501314
123	1	-0.865000000000	0.411000000000	0.287000000000	1.041899863990	0.013532640803	76.991614511296
124	1	-0.817000000000	-0.538000000000	0.208000000000	0.966016417193	0.013537711602	71.357438064479
125	1	-0.457000000000	-0.406000000000	0.792000000000	0.768625027979	0.013541350884	56.761325701944
126	1	0.208000000000	-0.817000000000	-0.538000000000	0.482955667121	0.013537711602	35.674837912759
127	1	0.792000000000	-0.457000000000	-0.406000000000	0.992362723587	0.013541350884	73.283879287755
128	1	0.411000000000	0.287000000000	-0.865000000000	0.853579365808	0.013532640803	63.075594650186
129	1	-0.538000000000	0.208000000000	-0.817000000000	1.097117694951	0.013537711602	81.041591605994
130	1	-0.743000000000	-0.583000000000	-0.328000000000	1.041706824379	0.013517170679	77.065448760599
131	1	0.617000000000	0.116000000000	0.778000000000	0.987559764071	0.013142629782	75.141716725367
132	1	0.486000000000	0.798000000000	0.357000000000	0.671935349069	0.013092248831	51.323142247136
133	1	-0.317000000000	0.902000000000	0.293000000000	1.040198291623	0.013108197266	79.354793834614
134	1	-0.681000000000	0.285000000000	0.674000000000	0.971544465919	0.013151197467	73.874981221617
135	1	-0.105000000000	-0.200000000000	0.974000000000	0.904441365192	0.013112204525	68.977063580852
136	1	0.317000000000	-0.902000000000	0.293000000000	0.960770819144	0.013108197266	73.295419622825
137	1	0.681000000000	-0.285000000000	0.674000000000	0.905559499820	0.013151197467	68.857569973341
138	1	0.974000000000	-0.105000000000	-0.200000000000	0.770465915105	0.013112204525	58.759449156531
139	1	0.778000000000	0.617000000000	0.116000000000	0.908181441454	0.013142629782	69.101957260504
140	1	0.285000000000	0.674000000000	-0.681000000000	1.097529005982	0.013151197467	83.454682262421
141	1	-0.200000000000	0.974000000000	-0.105000000000	0.906435896435	0.013112204525	69.129176159559
142	1	-0.798000000000	0.357000000000	-0.486000000000	0.794311997025	0.013092248831	60.670401800380
143	1	-0.902000000000	0.293000000000	0.317000000000	0.858711527034	0.013108197266	65.509505966245
144	1	-0.778000000000	-0.617000000000	0.116000000000	1.041706824379	0.013142629782	79.261673020934
145	1	-0.357000000000	-0.486000000000	0.798000000000	0.796481805818	0.013092248831	60.836134121964
146	1	0.116000000000	-0.778000000000	-0.617000000000	1.044195218358	0.013142629782	79.451010620796
147	1	0.798000000000	-0.357000000000	-0.486000000000	0.986552031512	0.013092248831	75.353901707429
148	1	0.293000000000	0.317000000000	-0.902000000000	0.855925170079	0.013108197266	65.296939974238
149	1	-0.617000000000	0.116000000000	-0.778000000000	0.794311997025	0.013142629782	60.437827910252
150	1	-0.674000000000	-0.681000000000	-0.285000000000	1.040198291623	0.013151197467	79.095329093094
151	1	0.684000000000	0.025000000000	0.729000000000	0.991159449182	0.012264249215	80.816969046985
152	1	0.555000000000	0.791000000000	0.256000000000	0.944911282641	0.012206432892	77.410926765791
153	1	-0.341000000000	0.924000000000	0.174000000000	1.037434502457	0.012289504079	84.416303198056
154	1	-0.766000000000	0.240000000000	0.596000000000	1.097117694951	0.012271362482	89.404717409348
155	1	-0.133000000000	-0.315000000000	0.940000000000	1.096241112193	0.012278677201	89.280066104523
156	1	0.341000000000	-0.924000000000	0.174000000000	0.971206395185	0.012289504079	79.027305656015
157	1	0.766000000000	-0.240000000000	0.596000000000	1.040878476196	0.012271362482	84.821752898609
158	1	0.940000000000	-0.133000000000	-0.315000000000	0.796481805818	0.012278677201	64.867069373307
159	1	0.729000000000	0.684000000000	0.025000000000	0.793307715944	0.012264249215	64.684572373412
160	1	0.240000000000	0.596000000000	-0.766000000000	1.097117694951	0.012271362482	89.404717409348
161	1	-0.315000000000	0.940000000000	-0.133000000000	0.963942647568	0.012278677201	78.505414856855
162	1	-0.791000000000	0.256000000000	-0.555000000000	0.944911282641	0.012206432892	77.410926765791
163	1	-0.924000000000	0.174000000000	0.341000000000	0.882998760462	0.012289504079	71.849828504914
164	1	-0.729000000000	-0.684000000000	0.025000000000	1.097529005982	0.012264249215	89.490109565969
165	1	-0.256000000000	-0.555000000000	0.791000000000	0.972317920882	0.012206432892	79.656188627669
166	1	0.025000000000	-0.729000000000	-0.684000000000	0.986552031512	0.012264249215	80.441290308849
167	1	0.791000000000	-0.256000000000	-0.555000000000	0.908181441454	0.012206432892	74.401870679332
168	1	0.174000000000	0.341000000000	-0.924000000000	0.916196062647	0.012289504079	74.551101231063
169	1	-0.684000000000	0.025000000000	-0.729000000000	0.881184202829	0.012264249215	71.849828504914
170	1	-0.596000000000	-0.766000000000	-0.240000000000	0.768903546713	0.012271362482	62.658368035877
171	1	0.738000000000	-0.061000000000	0.672000000000	0.919666500647	0.011041191502	83.294135459894
172	1	0.613000000000	0.774000000000	0.156000000000	0.671935349069	0.011051089013	60.802636579945
173	1	-0.359000000000	0.932000000000	0.059000000000	1.042062890005	0.011079127484	94.056403943592
174	1	-0.835000000000	0.194000000000	0.515000000000	1.098733429881	0.011055169004	99.386398298509
175	1	-0.157000000000	-0.419000000000	0.894000000000	0.855925170079	0.011085368224	77.212155047296
176	1	0.359000000000	-0.932000000000	0.059000000000	0.853579365808	0.011079127484	77.043915869570
177	1	0.835000000000	-0.194000000000	0.515000000000	0.971544465919	0.011055169004	87.881466631062
178	1	0.894000000000	-0.157000000000	-0.419000000000	0.960770819144	0.011085368224	86.670176372843
179	1	0.672000000000	0.738000000000	-0.061000000000	0.962760688918	0.011041191502	87.197173303355
180	1	0.194000000000	0.515000000000	-0.835000000000	0.882220851168	0.011055169004	79.801661182687
181	1	-0.419000000000	0.894000000000	-0.157000000000	1.098733429881	0.011085368224	99.115645747223
182	1	-0.774000000000	0.156000000000	-0.613000000000	0.971544465919	0.011051089013	87.913911902928
183	1	-0.932000000000	0.059000000000	0.359000000000	0.922810407838	0.011079127484	83.292696933551
184	1	-0.672000000000	-0.738000000000	-0.061000000000	0.942109646428	0.011041191502	85.326809721188
185	1	-0.156000000000	-0.613000000000	0.774000000000	0.971544465919	0.011051089013	87.913911902928
186	1	-0.061000000000	-0.672000000000	-0.738000000000	0.921086933157	0.011041191502	83.422783940394
187	1	0.774000000000	-0.156000000000	-0.613000000000	0.670066100417	0.011051089013	60.633490475845
188	1	0.059000000000	0.359000000000	-0.932000000000	0.796033409731	0.011079127484	71.849828504914
189	1	-0.738000000000	-0.061000000000	-0.672000000000	1.042062890005	0.011041191502	94.379568524845
190	1	-0.515000000000	-0.835000000000	-0.194000000000	0.793307715944	0.011055169004	71.758985833901
191	1	0.000000000000	0.526000000000	0.851000000000	0.796481805818	0.006721737228	118.493445778416
192	1	0.075000000000	0.478000000000	0.875000000000	0.995527736296	0.009335346150	106.640688015459
193	1	0.074000000000	0.570000000000	0.819000000000	1.065493110440	0.009351940889	113.932832026634
194	1	-0.029000000000	0.598000000000	0.801000000000	0.990575979448	0.009325924840	106.217452576982
195	1	-0.092000000000	0.523000000000	0.847000000000	0.989925488453	0.009333709706	106.059168289095
196	1	-0.028000000000	0.449000000000	0.893000000000	1.065493110440	0.009333996937	114.151859880724
197	1	0.029000000000	-0.598000000000	0.801000000000	0.986552031512	0.009325924840	105.785972803677
198	1	0.092000000000	-0.523000000000	0.847000000000	0.916196062647	0.009333709706	98.159905495482
199	1	0.893000000000	-0.028000000000	0.449000000000	0.855925170079	0.009333996937	91.699748338002
200	1	0.875000000000	0.075000000000	0.478000000000	0.794018850376	0.009335346150	85.055105361853
201	1	0.523000000000	0.847000000000	-0.092000000000	0.971544465919	0.009333709706	104.089852431503
202	1	0.449000000000	0.893000000000	-0.028000000000	0.670743019910	0.009333996937	71.860214274983
203	1	-0.570000000000	0.819000000000	-0.074000000000	1.040878476196	0.009351940889	111.300797186431
204	1	-0.598000000000	0.801000000000	0.029000000000	1.046025947299	0.009325924840	112.163240131653
205	1	-0.875000000000	-0.075000000000	0.478000000000	1.040198291623	0.009335346150	111.425786994106
206	1	-0.819000000000	-0.074000000000	0.570000000000	0.854522778811	0.009351940889	91.373843028481
207	1	0.478000000000	-0.875000000000	-0.075000000000	1.041706824379	0.009335346150	111.587380654560
208	1	0.570000000000	-0.819000000000	-0.074000000000	0.972317920882	0.009351940889	103.969639288046
209	1	0.801000000000	0.029000000000	-0.598000000000	0.963942647568	0.009325924840	103.361614433690
210	1	-0.075000000000	0.478000000000	-0.875000000000	0.941821725604	0.009335346150	100.887713264519
211	1	-0.847000000000	-0.092000000000	-0.523000000000	0.670743019910	0.009333709706	71.862425664506
212	1	0.157000000000	0.419000000000	0.894000000000	0.855925170079	0.011085368224	77.212155047296
213	1	0.156000000000	0.613000000000	0.774000000000	1.041899863990	0.011051089013	94.280288826327
214	1	-0.061000000000	0.672000000000	0.738000000000	0.908181441454	0.011041191502	82.253934391911
215	1	-0.194000000000	0.515000000000	0.835000000000	0.972682256972	0.011055169004	87.984386003194
216	1	-0.059000000000	0.359000000000	0.932000000000	0.853579365808	0.011079127484	77.043915869570
217	1	0.061000000000	-0.672000000000	0.738000000000	0.971206395185	0.011041191502	87.962100373442
218	1	0.194000000000	-0.515000000000	0.835000000000	0.989454044309	0.011055169004	89.501485138550
219	1	0.932000000000	-0.059000000000	0.359000000000	0.670625441679	0.011079127484	60.530528476156
220	1	0.894000000000	0.157000000000	0.419000000000	1.066650667877	0.011085368224	96.221491817822
221	1	0.515000000000	0.835000000000	-0.194000000000	0.972943738751	0.011055169004	88.008038448387
222	1	0.359000000000	0.932000000000	-0.059000000000	0.991023181666	0.011079127484	89.449569297819
223	1	-0.613000000000	0.774000000000	-0.156000000000	0.922810407838	0.011051089013	83.504024513161
224	1	-0.672000000000	0.738000000000	0.061000000000	0.768625027979	0.011041191502	69.614319052961
225	1	-0.894000000000	-0.157000000000	0.419000000000	0.995527736296	0.011085368224	89.805563168222
226	1	-0.774000000000	-0.156000000000	0.613000000000	0.990755546880	0.011051089013	89.652299942145
227	1	0.419000000000	-0.894000000000	-0.157000000000	0.995527736296	0.011085368224	89.805563168222
228	1	0.613000000000	-0.774000000000	-0.156000000000	1.046025947299	0.011051089013	94.653653234501
229	1	0.738000000000	0.061000000000	-0.672000000000	0.989454044309	0.011041191502	89.614788773977
230	1	-0.157000000000	0.419000000000	-0.894000000000	0.987559764071	0.011085368224	89.086780348914
231	1	-0.835000000000	-0.194000000000	-0.515000000000	1.042062890005	0.011055169004	94.260240583885
232	1	0.247000000000	0.350000000000	0.904000000000	0.944911282641	0.012615700208	74.899630384350
233	1	0.245000000000	0.654000000000	0.716000000000	0.769740399040	0.012587940487	61.149033859787
234	1	-0.095000000000	0.747000000000	0.658000000000	0.986552031512	0.012620044854	78.173417207339
235	1	-0.304000000000	0.500000000000	0.811000000000	0.960770819144	0.012603502592	76.230461501173
236	1	-0.093000000000	0.254000000000	0.963000000000	0.944911282641	0.012639994560	74.755671621487
237	1	0.095000000000	-0.747000000000	0.658000000000	0.853579365808	0.012620044854	67.636793348458
238	1	0.304000000000	-0.500000000000	0.811000000000	0.991159449182	0.012603502592	78.641587282671
239	1	0.963000000000	-0.093000000000	0.254000000000	0.960770819144	0.012639994560	76.010382327864
240	1	0.904000000000	0.247000000000	0.350000000000	1.097529005982	0.012615700208	86.997074110918
241	1	0.500000000000	0.811000000000	-0.304000000000	0.794018850376	0.012603502592	62.999856155797
242	1	0.254000000000	0.963000000000	-0.093000000000	0.966016417193	0.012639994560	76.425382352146
243	1	-0.654000000000	0.716000000000	-0.245000000000	0.854522778811	0.012587940487	67.884240453864
244	1	-0.747000000000	0.658000000000	0.095000000000	0.919666500647	0.012620044854	72.873473218128
245	1	-0.904000000000	-0.247000000000	0.350000000000	0.919108100642	0.012615700208	72.854307368341
246	1	-0.716000000000	-0.245000000000	0.654000000000	0.995527736296	0.012587940487	79.085831185458
247	1	0.350000000000	-0.904000000000	-0.247000000000	0.796033409731	0.012615700208	63.098630800330
248	1	0.654000000000	-0.716000000000	-0.245000000000	0.904441365192	0.012587940487	71.849828504914
249	1	0.658000000000	0.095000000000	-0.747000000000	1.096241112193	0.012620044854	86.865072582068
250	1	-0.247000000000	0.350000000000	-0.904000000000	1.037434502457	0.012615700208	82.233604582289
251	1	-0.811000000000	-0.304000000000	-0.500000000000	0.768903546713	0.012603502592	61.007132031767
252	1	0.340000000000	0.269000000000	0.901000000000	0.796481805818	0.013855673103	57.484165502258
253	1	0.338000000000	0.688000000000	0.642000000000	0.855925170079	0.013789254164	62.071897429066
254	1	-0.131000000000	0.816000000000	0.563000000000	0.796481805818	0.013777701479	57.809483464011
255	1	-0.419000000000	0.476000000000	0.773000000000	1.041899863990	0.013794875643	75.528035987321
256	1	-0.128000000000	0.138000000000	0.982000000000	1.040878476196	0.013811622717	75.362504285561
257	1	0.131000000000	-0.816000000000	0.563000000000	0.768625027979	0.013777701479	55.787609359574
258	1	0.419000000000	-0.476000000000	0.773000000000	0.941821725604	0.013794875643	68.273303072189
259	1	0.982000000000	-0.128000000000	0.138000000000	0.770465915105	0.013811622717	55.783880786142
260	1	0.901000000000	0.340000000000	0.269000000000	0.921086933157	0.013855673103	66.477241941722
261	1	0.476000000000	0.773000000000	-0.419000000000	0.769740399040	0.013794875643	55.799009644721
262	1	0.138000000000	0.982000000000	-0.128000000000	0.906435896435	0.013811622717	65.628486602320
263	1	-0.688000000000	0.642000000000	-0.338000000000	0.966016417193	0.013789254164	70.055740921043
264	1	-0.816000000000	0.563000000000	0.131000000000	0.922810407838	0.013777701479	66.978545677509
265	1	-0.901000000000	-0.340000000000	0.269000000000	1.041706824379	0.013855673103	75.182693515447
266	1	-0.642000000000	-0.338000000000	0.688000000000	0.960770819144	0.013789254164	69.675328899689
267	1	0.269000000000	-0.901000000000	-0.340000000000	0.794311997025	0.013855673103	57.327564752711
268	1	0.688000000000	-0.642000000000	-0.338000000000	0.908181441454	0.013789254164	65.861534689729
269	1	0.563000000000	0.131000000000	-0.816000000000	0.670625441679	0.013777701479	48.674696770334
270	1	-0.340000000000	0.269000000000	-0.901000000000	0.858711527034	0.013855673103	61.975446492476
271	1	-0.773000000000	-0.419000000000	-0.476000000000	0.972682256972	0.013794875643	70.510404164438
272	1	0.432000000000	0.180000000000	0.883000000000	1.044195218358	0.014529765395	71.865937955608
273	1	0.429000000000	0.713000000000	0.554000000000	0.995527736296	0.014498389851	68.664710118757
274	1	-0.167000000000	0.875000000000	0.454000000000	1.097529005982	0.014533023113	75.519662868170
275	1	-0.533000000000	0.443000000000	0.721000000000	0.916196062647	0.014477394216	63.284597281293
276	1	-0.162000000000	0.013000000000	0.987000000000	0.670625441679	0.014503345543	46.239361786911
277	1	0.167000000000	-0.875000000000	0.454000000000	0.989925488453	0.014533023113	68.115593068717
278	1	0.533000000000	-0.443000000000	0.721000000000	0.670066100417	0.014477394216	46.283612258917
279	1	0.987000000000	-0.162000000000	0.013000000000	1.097117694951	0.014503345543	75.645835762847
280	1	0.883000000000	0.432000000000	0.180000000000	0.940675833224	0.014529765395	64.741295380695
281	1	0.443000000000	0.721000000000	-0.533000000000	1.040198291623	0.014477394216	71.849828504914
282	1	0.013000000000	0.987000000000	-0.162000000000	0.992362723587	0.014503345543	68.423021478118
283	1	-0.713000000000	0.554000000000	-0.429000000000	0.972317920882	0.014498389851	67.063855427105
284	1	-0.875000000000	0.454000000000	0.167000000000	0.770465915105	0.014533023113	53.014841378246
285	1	-0.883000000000	-0.432000000000	0.180000000000	0.963942647568	0.014529765395	66.342616097997
286	1	-0.554000000000	-0.429000000000	0.713000000000	0.991159449182	0.014498389851	68.363415481263
287	1	0.180000000000	-0.883000000000	-0.432000000000	0.766703241260	0.014529765395	52.767764684232
288	1	0.713000000000	-0.554000000000	-0.429000000000	0.482955667121	0.014498389851	33.310986398457
289	1	0.454000000000	0.167000000000	-0.875000000000	0.882220851168	0.014533023113	60.704565339400
290	1	-0.432000000000	0.180000000000	-0.883000000000	0.904441365192	0.014529765395	62.247485807872
291	1	-0.721000000000	-0.533000000000	-0.443000000000	1.097529005982	0.014477394216	75.809844617115
292	1	0.519000000000	0.087000000000	0.850000000000	0.991159449182	0.014486860969	68.417820209881
293	1	0.515000000000	0.726000000000	0.455000000000	1.097529005982	0.014558503048	75.387490207678
294	1	-0.200000000000	0.921000000000	0.335000000000	0.904441365192	0.014501076560	62.370635823845
295	1	-0.639000000000	0.402000000000	0.656000000000	0.670743019910	0.014471355593	46.349702045643
296	1	-0.195000000000	-0.114000000000	0.974000000000	0.855925170079	0.014438928026	59.278996927052
297	1	0.200000000000	-0.921000000000	0.335000000000	0.989925488453	0.014501076560	68.265654921598
298	1	0.639000000000	-0.402000000000	0.656000000000	0.794311997025	0.014471355593	54.888568796927
299	1	0.974000000000	-0.195000000000	-0.114000000000	0.794018850376	0.014438928026	54.991537387682
300	1	0.850000000000	0.519000000000	0.087000000000	0.768903546713	0.014486860969	53.075925030187
301	1	0.402000000000	0.656000000000	-0.639000000000	0.908181441454	0.014471355593	62.757178181979
302	1	-0.114000000000	0.974000000000	-0.195000000000	0.905559499820	0.014438928026	62.716532570416
303	1	-0.726000000000	0.455000000000	-0.515000000000	0.908181441454	0.014558503048	62.381512608129