ITEM: TIMESTEP
-1
ITEM: NUMBER OF ATOMS
632
ITEM: BOX BOUNDS
-1	1
-1	1
-1	1
ITEM: ATOMS index type x y z Vq Va Vq/a
0	1	0.851000000000	0.000000000000	0.526000000000	0.967954475850	0.010458552451	92.551476924484
1	1	0.526000000000	0.851000000000	0.000000000000	0.842342461365	0.010458552451	80.541018013326
2	1	-0.526000000000	0.851000000000	0.000000000000	0.879755906759	0.010458552451	84.118324296264
3	1	-0.851000000000	0.000000000000	0.526000000000	1.084739602125	0.010458552451	103.717948271313
4	1	0.000000000000	-0.526000000000	0.851000000000	1.084739602125	0.010458552451	103.717948271313
5	1	0.526000000000	-0.851000000000	0.000000000000	0.501830202336	0.010458552451	47.982759055649
6	1	0.851000000000	0.000000000000	-0.526000000000	0.990376053336	0.010458552451	94.695327862849
7	1	0.000000000000	0.526000000000	-0.851000000000	0.723826014983	0.010458552451	69.209005582837
8	1	-0.851000000000	0.000000000000	-0.526000000000	0.993521957425	0.010458552451	94.996125138880
9	1	-0.526000000000	-0.851000000000	0.000000000000	0.993521957425	0.010458552451	94.996125138880
10	1	0.000000000000	-0.526000000000	-0.851000000000	0.842559102746	0.010458552451	80.561732293065
11	1	0.653000000000	0.202000000000	0.730000000000	0.935264772052	0.019382927170	48.251988145571
12	1	0.404000000000	0.855000000000	0.326000000000	0.722327333451	0.019395391485	37.242214679035
13	1	-0.404000000000	0.855000000000	0.326000000000	0.840016327806	0.019491683898	43.096139472322
14	1	-0.653000000000	0.202000000000	0.730000000000	1.085852104993	0.019444568696	55.843465697204
15	1	0.000000000000	-0.202000000000	0.979000000000	0.842342461365	0.019400875571	43.417754949925
16	1	0.404000000000	-0.855000000000	0.326000000000	0.879063806210	0.019491683898	45.099428598546
17	1	0.653000000000	-0.202000000000	0.730000000000	0.991651191768	0.019444568696	50.998878260171
18	1	0.979000000000	0.000000000000	-0.202000000000	0.930644396392	0.019400875571	47.969195667315
19	1	0.730000000000	0.653000000000	0.202000000000	1.086341117024	0.019382927170	56.046287925177
20	1	0.202000000000	0.730000000000	-0.653000000000	1.006525527185	0.019444568696	51.763839193445
21	1	-0.202000000000	0.979000000000	0.000000000000	1.086120465847	0.019400875571	55.983064365364
22	1	-0.855000000000	0.326000000000	-0.404000000000	0.993296542692	0.019395391485	51.213018488624
23	1	-0.855000000000	0.326000000000	0.404000000000	0.967954475850	0.019491683898	49.659869354030
24	1	-0.730000000000	-0.653000000000	0.202000000000	0.935264772052	0.019382927170	48.251988145571
25	1	-0.326000000000	-0.404000000000	0.855000000000	1.007350055783	0.019395391485	51.937598505613
26	1	0.202000000000	-0.730000000000	-0.653000000000	0.879234896641	0.019382927170	45.361306314162
27	1	0.855000000000	-0.326000000000	-0.404000000000	0.930907538002	0.019395391485	47.996326279059
28	1	0.326000000000	0.404000000000	-0.855000000000	1.006367664040	0.019491683898	51.630616899090
29	1	-0.653000000000	0.202000000000	-0.730000000000	1.006525527185	0.019382927170	51.928458397287
30	1	-0.730000000000	-0.653000000000	-0.202000000000	0.990376053336	0.019444568696	50.933300131291
31	1	0.729000000000	0.085000000000	0.679000000000	0.993743414198	0.017553598545	56.611948351029
32	1	0.496000000000	0.842000000000	0.211000000000	1.086083046486	0.017506628304	62.038390694264
33	1	-0.423000000000	0.888000000000	0.182000000000	1.085852104993	0.017559621817	61.838012020960
34	1	-0.758000000000	0.158000000000	0.633000000000	1.083964307193	0.017532847100	61.824773866706
35	1	-0.046000000000	-0.338000000000	0.940000000000	0.725134135213	0.017555106833	41.306164759369
36	1	0.423000000000	-0.888000000000	0.182000000000	0.935264772052	0.017559621817	53.262238891460
37	1	0.758000000000	-0.158000000000	0.633000000000	0.930907538002	0.017532847100	53.095058246704
38	1	0.940000000000	-0.046000000000	-0.338000000000	0.842559102746	0.017555106833	47.995099702915
39	1	0.679000000000	0.729000000000	0.085000000000	1.086341117024	0.017553598545	61.887089091519
40	1	0.158000000000	0.633000000000	-0.758000000000	0.879322931705	0.017532847100	50.152888843044
41	1	-0.338000000000	0.940000000000	-0.046000000000	0.721639309058	0.017555106833	41.107087294999
42	1	-0.842000000000	0.211000000000	-0.496000000000	0.723826014983	0.017506628304	41.345826414894
43	1	-0.888000000000	0.182000000000	0.423000000000	0.725134135213	0.017559621817	41.295543991575
44	1	-0.679000000000	-0.729000000000	0.085000000000	1.009765038228	0.017553598545	57.524674251028
45	1	-0.211000000000	-0.496000000000	0.842000000000	0.971093880864	0.017506628304	55.470069049279
46	1	0.085000000000	-0.679000000000	-0.729000000000	0.993521957425	0.017553598545	56.599332318322
47	1	0.842000000000	-0.211000000000	-0.496000000000	0.880712290710	0.017506628304	50.307362182895
48	1	0.182000000000	0.423000000000	-0.888000000000	1.003613714905	0.017559621817	57.154631538952
49	1	-0.729000000000	0.085000000000	-0.679000000000	0.841274377956	0.017553598545	47.926034983903
50	1	-0.633000000000	-0.758000000000	-0.158000000000	1.011084116092	0.017532847100	57.667993699417
51	1	0.786000000000	-0.027000000000	0.617000000000	0.879234896641	0.015039554274	58.461499629151
52	1	0.573000000000	0.813000000000	0.098000000000	1.011084116092	0.015112389314	66.904319037760
53	1	-0.432000000000	0.901000000000	0.044000000000	1.086083046486	0.015053893266	72.146323031964
54	1	-0.840000000000	0.114000000000	0.530000000000	1.086341117024	0.015015270854	72.349085648909
55	1	-0.087000000000	-0.459000000000	0.884000000000	0.971093880864	0.015085127017	64.374259478653
56	1	0.432000000000	-0.901000000000	0.044000000000	1.007143119623	0.015053893266	66.902501685127
57	1	0.840000000000	-0.114000000000	0.530000000000	1.085852104993	0.015015270854	72.316518002542
58	1	0.884000000000	-0.087000000000	-0.459000000000	1.008398987180	0.015085127017	66.847232114154
59	1	0.617000000000	0.786000000000	-0.027000000000	0.993521957425	0.015039554274	66.060598558388
60	1	0.114000000000	0.530000000000	-0.840000000000	0.971093880864	0.015015270854	64.673750499457
61	1	-0.459000000000	0.884000000000	-0.087000000000	0.880712290710	0.015085127017	58.382822346430
62	1	-0.813000000000	0.098000000000	-0.573000000000	1.127418890009	0.015112389314	74.602292634096
63	1	-0.901000000000	0.044000000000	0.432000000000	0.993296542692	0.015053893266	65.982701292882
64	1	-0.617000000000	-0.786000000000	-0.027000000000	0.991651191768	0.015039554274	65.936208857575
65	1	-0.098000000000	-0.573000000000	0.813000000000	1.006525527185	0.015112389314	66.602673228348
66	1	-0.027000000000	-0.617000000000	-0.786000000000	0.993743414198	0.015039554274	66.075323514282
67	1	0.813000000000	-0.098000000000	-0.573000000000	0.971464116477	0.015112389314	64.282629059292
68	1	0.044000000000	0.432000000000	-0.901000000000	0.723826014983	0.015053893266	48.082313470267
69	1	-0.786000000000	-0.027000000000	-0.617000000000	0.841274377956	0.015039554274	55.937454169260
70	1	-0.530000000000	-0.840000000000	-0.114000000000	0.722327333451	0.015015270854	48.106180734031
71	1	0.326000000000	0.404000000000	0.855000000000	0.879322931705	0.019395391485	45.336694152653
72	1	0.202000000000	0.730000000000	0.653000000000	1.083784892963	0.019382927170	55.914407738079
73	1	-0.202000000000	0.730000000000	0.653000000000	0.991651191768	0.019444568696	50.998878260171
74	1	-0.326000000000	0.404000000000	0.855000000000	1.083784892963	0.019491683898	55.602425047057
75	1	0.000000000000	0.202000000000	0.979000000000	0.971464116477	0.019400875571	50.073209990507
76	1	0.202000000000	-0.730000000000	0.653000000000	0.723826014983	0.019444568696	37.225100041306
77	1	0.326000000000	-0.404000000000	0.855000000000	1.086341117024	0.019491683898	55.733569389186
78	1	0.979000000000	0.000000000000	0.202000000000	0.930046324210	0.019400875571	47.938368595614
79	1	0.855000000000	0.326000000000	0.404000000000	1.006525527185	0.019395391485	51.895086932786
80	1	0.404000000000	0.855000000000	-0.326000000000	0.971703485817	0.019491683898	49.852208301598
81	1	0.202000000000	0.979000000000	0.000000000000	0.720474123521	0.019400875571	37.136165369266
82	1	-0.730000000000	0.653000000000	-0.202000000000	0.990376053336	0.019382927170	51.095278057335
83	1	-0.730000000000	0.653000000000	0.202000000000	1.084739602125	0.019444568696	55.786251629601
84	1	-0.855000000000	-0.326000000000	0.404000000000	1.086120465847	0.019395391485	55.998893691488
85	1	-0.653000000000	-0.202000000000	0.730000000000	0.720474123521	0.019382927170	37.170553094860
86	1	0.404000000000	-0.855000000000	-0.326000000000	1.083964307193	0.019395391485	55.887725084466
87	1	0.730000000000	-0.653000000000	-0.202000000000	1.007192452473	0.019382927170	51.962866269837
88	1	0.653000000000	0.202000000000	-0.730000000000	0.879755906759	0.019444568696	45.244300374863
89	1	-0.326000000000	0.404000000000	-0.855000000000	0.720474123521	0.019395391485	37.146665696093
90	1	-0.855000000000	-0.326000000000	-0.404000000000	0.930907538002	0.019491683898	47.759215821864
91	1	0.435000000000	0.299000000000	0.849000000000	0.880712290710	0.020701113530	42.544198863267
92	1	0.317000000000	0.764000000000	0.562000000000	0.971703485817	0.020666823069	47.017554781893
93	1	-0.239000000000	0.812000000000	0.532000000000	0.841274377956	0.020640248140	40.758927521690
94	1	-0.465000000000	0.377000000000	0.801000000000	0.840016327806	0.020710426698	40.560068609294
95	1	-0.048000000000	0.060000000000	0.997000000000	0.840016327806	0.020705811358	40.569109478350
96	1	0.239000000000	-0.812000000000	0.532000000000	0.723826014983	0.020640248140	35.068668268112
97	1	0.465000000000	-0.377000000000	0.801000000000	1.084206918819	0.020710426698	52.350776476990
98	1	0.997000000000	-0.048000000000	0.060000000000	1.084206918819	0.020705811358	52.362445503482
99	1	0.849000000000	0.435000000000	0.299000000000	1.009765038228	0.020701113530	48.778295755299
100	1	0.377000000000	0.801000000000	-0.465000000000	1.009765038228	0.020710426698	48.756360887403
101	1	0.060000000000	0.997000000000	-0.048000000000	1.007143119623	0.020705811358	48.640601531017
102	1	-0.764000000000	0.562000000000	-0.317000000000	0.969164644931	0.020666823069	46.894708571930
103	1	-0.812000000000	0.532000000000	0.239000000000	1.007192452473	0.020640248140	48.797497280839
104	1	-0.849000000000	-0.435000000000	0.299000000000	1.011084116092	0.020701113530	48.842015895858
105	1	-0.562000000000	-0.317000000000	0.764000000000	1.086341117024	0.020666823069	52.564494958642
106	1	0.299000000000	-0.849000000000	-0.435000000000	0.991651191768	0.020701113530	47.903277779391
107	1	0.764000000000	-0.562000000000	-0.317000000000	0.993296542692	0.020666823069	48.062372207503
108	1	0.532000000000	0.239000000000	-0.812000000000	1.011084116092	0.020640248140	48.986044608018
109	1	-0.435000000000	0.299000000000	-0.849000000000	0.723826014983	0.020701113530	34.965559409901
110	1	-0.801000000000	-0.465000000000	-0.377000000000	1.083784892963	0.020710426698	52.330399018691
111	1	0.539000000000	0.182000000000	0.823000000000	0.930644396392	0.021044330466	44.223046102823
112	1	0.431000000000	0.781000000000	0.452000000000	1.086120465847	0.021080167514	51.523331829400
113	1	-0.272000000000	0.879000000000	0.392000000000	0.930046324210	0.021071821129	44.136969392465
114	1	-0.599000000000	0.340000000000	0.725000000000	1.006367664040	0.021015860843	47.886102385011
115	1	-0.098000000000	-0.091000000000	0.991000000000	0.842270089539	0.020994000254	40.119561749294
116	1	0.272000000000	-0.879000000000	0.392000000000	0.879063806210	0.021071821129	41.717505137882
117	1	0.599000000000	-0.340000000000	0.725000000000	1.083964307193	0.021015860843	51.578391924439
118	1	0.991000000000	-0.098000000000	-0.091000000000	1.126333105171	0.020994000254	53.650237761490
119	1	0.823000000000	0.539000000000	0.182000000000	1.006367664040	0.021044330466	47.821320125887
120	1	0.340000000000	0.725000000000	-0.599000000000	1.003613714905	0.021015860843	47.755060922753
121	1	-0.091000000000	0.991000000000	-0.098000000000	1.126333105171	0.020994000254	53.650237761490
122	1	-0.781000000000	0.452000000000	-0.431000000000	1.006367664040	0.021080167514	47.740022149642
123	1	-0.879000000000	0.392000000000	0.272000000000	0.721639309058	0.021071821129	34.246651233560
124	1	-0.823000000000	-0.539000000000	0.182000000000	0.933004054699	0.021044330466	44.335174084792
125	1	-0.452000000000	-0.431000000000	0.781000000000	0.841274377956	0.021080167514	39.908334570587
126	1	0.182000000000	-0.823000000000	-0.539000000000	1.084206918819	0.021044330466	51.520143184447
127	1	0.781000000000	-0.452000000000	-0.431000000000	0.933004054699	0.021080167514	44.259802683081
128	1	0.392000000000	0.272000000000	-0.879000000000	0.971464116477	0.021071821129	46.102522915970
129	1	-0.539000000000	0.182000000000	-0.823000000000	1.084739602125	0.021044330466	51.545455622256
130	1	-0.725000000000	-0.599000000000	-0.340000000000	0.930907538002	0.021015860843	44.295474972602
131	1	0.629000000000	0.060000000000	0.775000000000	0.722327333451	0.020238391872	35.690945111772
132	1	0.534000000000	0.778000000000	0.331000000000	0.993521957425	0.020172964100	49.250172284969
133	1	-0.299000000000	0.923000000000	0.242000000000	0.930046324210	0.020251096538	45.925726660992
134	1	-0.718000000000	0.295000000000	0.630000000000	1.082881091272	0.020246107885	53.485889604297
135	1	-0.145000000000	-0.239000000000	0.960000000000	1.083964307193	0.020198185015	53.666421334096
136	1	0.299000000000	-0.923000000000	0.242000000000	0.879234896641	0.020251096538	43.416656227576
137	1	0.718000000000	-0.295000000000	0.630000000000	0.842559102746	0.020246107885	41.615855626061
138	1	0.960000000000	-0.145000000000	-0.239000000000	0.879063806210	0.020198185015	43.521920685527
139	1	0.775000000000	0.629000000000	0.060000000000	0.841274377956	0.020238391872	41.568242342587
140	1	0.295000000000	0.630000000000	-0.718000000000	1.006367664040	0.020246107885	49.706722385356
141	1	-0.239000000000	0.960000000000	-0.145000000000	0.842342461365	0.020198185015	41.703868973550
142	1	-0.778000000000	0.331000000000	-0.534000000000	0.935264772052	0.020172964100	46.362288031385
143	1	-0.923000000000	0.242000000000	0.299000000000	0.933004054699	0.020251096538	46.071779517128
144	1	-0.775000000000	-0.629000000000	0.060000000000	0.879234896641	0.020238391872	43.443911067928
145	1	-0.331000000000	-0.534000000000	0.778000000000	0.842270089539	0.020172964100	41.752420981014
146	1	0.060000000000	-0.775000000000	-0.629000000000	0.967954475850	0.020238391872	47.827637787426
147	1	0.778000000000	-0.331000000000	-0.534000000000	1.084739602125	0.020172964100	53.771949265697
148	1	0.242000000000	0.299000000000	-0.923000000000	0.879322931705	0.020251096538	43.421003402748
149	1	-0.629000000000	0.060000000000	-0.775000000000	0.840016327806	0.020238391872	41.506080775690
150	1	-0.630000000000	-0.718000000000	-0.295000000000	1.006367664040	0.020246107885	49.706722385356
151	1	0.700000000000	-0.058000000000	0.712000000000	0.721639309058	0.018334833679	39.358923112178
152	1	0.619000000000	0.757000000000	0.209000000000	0.879755906759	0.018320409737	48.020536624976
153	1	-0.317000000000	0.944000000000	0.093000000000	1.003613714905	0.018323975402	54.770522929861
154	1	-0.815000000000	0.244000000000	0.526000000000	1.084206918819	0.018354765504	59.069505332162
155	1	-0.187000000000	-0.375000000000	0.908000000000	0.725134135213	0.018325810125	39.569008424995
156	1	0.317000000000	-0.944000000000	0.093000000000	1.008398987180	0.018323975402	55.031671079772
157	1	0.815000000000	-0.244000000000	0.526000000000	1.127418890009	0.018354765504	61.423769742702
158	1	0.908000000000	-0.187000000000	-0.375000000000	1.007192452473	0.018325810125	54.960323479747
159	1	0.712000000000	0.700000000000	-0.058000000000	0.879234896641	0.018334833679	47.954342647486
160	1	0.244000000000	0.526000000000	-0.815000000000	1.082881091272	0.018354765504	58.997271908794
161	1	-0.375000000000	0.908000000000	-0.187000000000	1.083784892963	0.018325810125	59.139808041096
162	1	-0.757000000000	0.209000000000	-0.619000000000	0.935264772052	0.018320409737	51.050428755691
163	1	-0.944000000000	0.093000000000	0.317000000000	1.086120465847	0.018323975402	59.273189471029
164	1	-0.712000000000	-0.700000000000	-0.058000000000	1.086083046486	0.018334833679	59.236045741338
165	1	-0.209000000000	-0.619000000000	0.757000000000	0.930907538002	0.018320409737	50.812593788408
166	1	-0.058000000000	-0.712000000000	-0.700000000000	0.933004054699	0.018334833679	50.886965817061
167	1	0.757000000000	-0.209000000000	-0.619000000000	0.993521957425	0.018320409737	54.230335002822
168	1	0.093000000000	0.317000000000	-0.944000000000	1.084739602125	0.018323975402	59.197831166315
169	1	-0.700000000000	-0.058000000000	-0.712000000000	1.127418890009	0.018334833679	61.490543613878
170	1	-0.526000000000	-0.815000000000	-0.244000000000	1.011084116092	0.018354765504	55.085646060822
171	1	0.000000000000	0.526000000000	0.851000000000	0.969164644931	0.010458552451	92.667187878447
172	1	0.087000000000	0.459000000000	0.884000000000	0.721639309058	0.015085127017	47.837801315309
173	1	0.098000000000	0.573000000000	0.813000000000	1.086341117024	0.015112389314	71.884140518555
174	1	-0.027000000000	0.617000000000	0.786000000000	1.007350055783	0.015039554274	66.980047240559
175	1	-0.114000000000	0.530000000000	0.840000000000	1.006367664040	0.015015270854	67.022944431459
176	1	-0.044000000000	0.432000000000	0.901000000000	1.084032189648	0.015053893266	72.010088716912
177	1	0.027000000000	-0.617000000000	0.786000000000	1.085852104993	0.015039554274	72.199753076086
178	1	0.114000000000	-0.530000000000	0.840000000000	0.993296542692	0.015015270854	66.152422582321
179	1	0.901000000000	-0.044000000000	0.432000000000	0.501830202336	0.015053893266	33.335575950742
180	1	0.884000000000	0.087000000000	0.459000000000	1.086341117024	0.015085127017	72.014051707814
181	1	0.530000000000	0.840000000000	-0.114000000000	0.842270089539	0.015015270854	56.094232182329
182	1	0.432000000000	0.901000000000	-0.044000000000	0.930046324210	0.015053893266	61.781115871612
183	1	-0.573000000000	0.813000000000	-0.098000000000	0.501830202336	0.015112389314	33.206542784649
184	1	-0.617000000000	0.786000000000	0.027000000000	0.720474123521	0.015039554274	47.905284317000
185	1	-0.884000000000	-0.087000000000	0.459000000000	1.006525527185	0.015085127017	66.723039590448
186	1	-0.813000000000	-0.098000000000	0.573000000000	0.935264772052	0.015112389314	61.887286822393
187	1	0.459000000000	-0.884000000000	-0.087000000000	1.011084116092	0.015085127017	67.025230543275
188	1	0.573000000000	-0.813000000000	-0.098000000000	1.007350055783	0.015112389314	66.657233005790
189	1	0.786000000000	0.027000000000	-0.617000000000	1.086341117024	0.015039554274	72.232268137527
190	1	-0.087000000000	0.459000000000	-0.884000000000	1.003613714905	0.015085127017	66.530014216700
191	1	-0.840000000000	-0.114000000000	-0.530000000000	0.933004054699	0.015015270854	62.137011300020
192	1	0.187000000000	0.375000000000	0.908000000000	1.126333105171	0.018325810125	61.461572367950
193	1	0.209000000000	0.619000000000	0.757000000000	0.969164644931	0.018320409737	52.900817113022
194	1	-0.058000000000	0.712000000000	0.700000000000	0.880712290710	0.018334833679	48.034921184175
195	1	-0.244000000000	0.526000000000	0.815000000000	0.879322931705	0.018354765504	47.907064326456
196	1	-0.093000000000	0.317000000000	0.944000000000	0.725134135213	0.018323975402	39.572970347122
197	1	0.058000000000	-0.712000000000	0.700000000000	0.842342461365	0.018334833679	45.942192664456
198	1	0.244000000000	-0.526000000000	0.815000000000	1.123756716989	0.018354765504	61.224248096967
199	1	0.944000000000	-0.093000000000	0.317000000000	0.501830202336	0.018323975402	27.386535472529
200	1	0.908000000000	0.187000000000	0.375000000000	1.007350055783	0.018325810125	54.968923553020
201	1	0.526000000000	0.815000000000	-0.244000000000	1.008398987180	0.018354765504	54.939355501483
202	1	0.317000000000	0.944000000000	-0.093000000000	0.930046324210	0.018323975402	50.755706871556
203	1	-0.619000000000	0.757000000000	-0.209000000000	0.501830202336	0.018320409737	27.391865659187
204	1	-0.712000000000	0.700000000000	0.058000000000	0.993743414198	0.018334833679	54.199750681171
205	1	-0.908000000000	-0.187000000000	0.375000000000	0.725134135213	0.018325810125	39.569008424995
206	1	-0.757000000000	-0.209000000000	0.619000000000	0.501830202336	0.018320409737	27.391865659187
207	1	0.375000000000	-0.908000000000	-0.187000000000	0.720474123521	0.018325810125	39.314721620744
208	1	0.619000000000	-0.757000000000	-0.209000000000	1.007350055783	0.018320409737	54.985126983824
209	1	0.700000000000	0.058000000000	-0.712000000000	0.841274377956	0.018334833679	45.883938336798
210	1	-0.187000000000	0.375000000000	-0.908000000000	1.006525527185	0.018325810125	54.923930802796
211	1	-0.815000000000	-0.244000000000	-0.526000000000	0.971464116477	0.018354765504	52.927078597433
212	1	0.294000000000	0.272000000000	0.916000000000	0.720474123521	0.020989687535	34.325147639075
213	1	0.329000000000	0.657000000000	0.678000000000	1.082881091272	0.020916131849	51.772531320316
214	1	-0.091000000000	0.804000000000	0.588000000000	1.003613714905	0.020976816402	47.843948083352
215	1	-0.385000000000	0.510000000000	0.769000000000	1.007350055783	0.020973526405	48.029598663051
216	1	-0.147000000000	0.182000000000	0.972000000000	1.086120465847	0.020990715672	51.742898281449
217	1	0.091000000000	-0.804000000000	0.588000000000	0.993521957425	0.020976816402	47.362857088107
218	1	0.385000000000	-0.510000000000	0.769000000000	0.990376053336	0.020973526405	47.220292582667
219	1	0.972000000000	-0.147000000000	0.182000000000	0.720474123521	0.020990715672	34.323466374124
220	1	0.916000000000	0.294000000000	0.272000000000	1.084206918819	0.020989687535	51.654266745776
221	1	0.510000000000	0.769000000000	-0.385000000000	0.971093880864	0.020973526405	46.300934907659
222	1	0.182000000000	0.972000000000	-0.147000000000	1.085852104993	0.020990715672	51.730113540892
223	1	-0.657000000000	0.678000000000	-0.329000000000	1.083784892963	0.020916131849	51.815742067771
224	1	-0.804000000000	0.588000000000	0.091000000000	0.930907538002	0.020976816402	44.377922757645
225	1	-0.916000000000	-0.294000000000	0.272000000000	1.082881091272	0.020989687535	51.591101081909
226	1	-0.678000000000	-0.329000000000	0.657000000000	0.967954475850	0.020916131849	46.277891286035
227	1	0.272000000000	-0.916000000000	-0.294000000000	0.721639309058	0.020989687535	34.380659925044
228	1	0.657000000000	-0.678000000000	-0.329000000000	0.971464116477	0.020916131849	46.445687160155
229	1	0.588000000000	0.091000000000	-0.804000000000	1.011484598681	0.020976816402	48.219166306414
230	1	-0.294000000000	0.272000000000	-0.916000000000	1.086341117024	0.020989687535	51.755945162943
231	1	-0.769000000000	-0.385000000000	-0.510000000000	0.879755906759	0.020973526405	41.946017554173
232	1	0.402000000000	0.155000000000	0.902000000000	0.993296542692	0.022630047258	43.892817870510
233	1	0.450000000000	0.682000000000	0.577000000000	1.084206918819	0.022606861787	47.959196151998
234	1	-0.124000000000	0.883000000000	0.453000000000	0.971703485817	0.022592118731	43.010728536233
235	1	-0.527000000000	0.481000000000	0.701000000000	1.003613714905	0.022586964866	44.433314562613
236	1	-0.201000000000	0.031000000000	0.979000000000	1.011084116092	0.022635640118	44.667794276023
237	1	0.124000000000	-0.883000000000	0.453000000000	1.084206918819	0.022592118731	47.990493131994
238	1	0.527000000000	-0.481000000000	0.701000000000	0.725134135213	0.022586964866	32.104098072286
239	1	0.979000000000	-0.201000000000	0.031000000000	0.993296542692	0.022635640118	43.881972743788
240	1	0.902000000000	0.402000000000	0.155000000000	0.721639309058	0.022630047258	31.888546269212
241	1	0.481000000000	0.701000000000	-0.527000000000	0.880712290710	0.022586964866	38.992060063636
242	1	0.031000000000	0.979000000000	-0.201000000000	1.011484598681	0.022635640118	44.685486843433
243	1	-0.682000000000	0.577000000000	-0.450000000000	0.930046324210	0.022606861787	41.140001340165
244	1	-0.883000000000	0.453000000000	0.124000000000	0.933004054699	0.022592118731	41.297766968635
245	1	-0.902000000000	-0.402000000000	0.155000000000	0.842559102746	0.022630047258	37.231875530088
246	1	-0.577000000000	-0.450000000000	0.682000000000	0.993296542692	0.022606861787	43.937834098982
247	1	0.155000000000	-0.902000000000	-0.402000000000	0.991651191768	0.022630047258	43.820111397360
248	1	0.682000000000	-0.577000000000	-0.450000000000	0.993743414198	0.022606861787	43.957601172838
249	1	0.453000000000	0.124000000000	-0.883000000000	0.721639309058	0.022592118731	31.942081999280
250	1	-0.402000000000	0.155000000000	-0.902000000000	0.841274377956	0.022630047258	37.175104778565
251	1	-0.701000000000	-0.527000000000	-0.481000000000	1.007143119623	0.022586964866	44.589573039080
252	1	0.503000000000	0.031000000000	0.864000000000	0.840016327806	0.022634860268	37.111619770068
253	1	0.562000000000	0.689000000000	0.457000000000	0.993296542692	0.022595760230	43.959421261291
254	1	-0.155000000000	0.941000000000	0.302000000000	0.842342461365	0.022640238669	37.205546888168
255	1	-0.658000000000	0.438000000000	0.612000000000	1.127418890009	0.022568128898	49.956241170101
256	1	-0.251000000000	-0.124000000000	0.960000000000	0.969164644931	0.022590704005	42.901037731944
257	1	0.155000000000	-0.941000000000	0.302000000000	1.083964307193	0.022640238669	47.877777395959
258	1	0.658000000000	-0.438000000000	0.612000000000	0.722327333451	0.022568128898	32.006522858003
259	1	0.960000000000	-0.251000000000	-0.124000000000	1.011484598681	0.022590704005	44.774372610728
260	1	0.864000000000	0.503000000000	0.031000000000	1.084739602125	0.022634860268	47.923406166128
261	1	0.438000000000	0.612000000000	-0.658000000000	0.967954475850	0.022568128898	42.890329109907
262	1	-0.124000000000	0.960000000000	-0.251000000000	0.501830202336	0.022590704005	22.214013437306
263	1	-0.689000000000	0.457000000000	-0.562000000000	1.003613714905	0.022595760230	44.416018964046
264	1	-0.941000000000	0.302000000000	0.155000000000	0.969164644931	0.022640238669	42.807174389524
265	1	-0.864000000000	-0.503000000000	0.031000000000	1.008398987180	0.022634860268	44.550705206534
266	1	-0.457000000000	-0.562000000000	0.689000000000	0.840016327806	0.022595760230	37.175838265088
267	1	0.031000000000	-0.864000000000	-0.503000000000	0.971703485817	0.022634860268	42.929511131162
268	1	0.689000000000	-0.457000000000	-0.562000000000	1.083964307193	0.022595760230	47.972022013680
269	1	0.302000000000	0.155000000000	-0.941000000000	1.006525527185	0.022640238669	44.457372640535
270	1	-0.503000000000	0.031000000000	-0.864000000000	0.501830202336	0.022634860268	22.170678166330
271	1	-0.612000000000	-0.658000000000	-0.438000000000	0.991651191768	0.022568128898	43.940337111237
272	1	0.588000000000	-0.091000000000	0.804000000000	1.007143119623	0.020976816402	48.012200722374
273	1	0.657000000000	0.678000000000	0.329000000000	0.993743414198	0.020916131849	47.510860103312
274	1	-0.182000000000	0.972000000000	0.147000000000	1.007143119623	0.020990715672	47.980408833244
275	1	-0.769000000000	0.385000000000	0.510000000000	1.123756716989	0.020973526405	53.579769814913
276	1	-0.294000000000	-0.272000000000	0.916000000000	1.127418890009	0.020989687535	53.712990636696
277	1	0.182000000000	-0.972000000000	0.147000000000	0.993743414198	0.020990715672	47.342045395126
278	1	0.769000000000	-0.385000000000	0.510000000000	0.967954475850	0.020973526405	46.151250731839
279	1	0.916000000000	-0.294000000000	-0.272000000000	1.003613714905	0.020989687535	47.814609591196
280	1	0.804000000000	0.588000000000	-0.091000000000	1.082881091272	0.020976816402	51.622756785622
281	1	0.385000000000	0.510000000000	-0.769000000000	1.006525527185	0.020973526405	47.990285836887
282	1	-0.272000000000	0.916000000000	-0.294000000000	0.720474123521	0.020989687535	34.325147639075
283	1	-0.678000000000	0.329000000000	-0.657000000000	0.971093880864	0.020916131849	46.427986200170
284	1	-0.972000000000	0.147000000000	0.182000000000	0.930644396392	0.020990715672	44.336001256702
285	1	-0.804000000000	-0.588000000000	-0.091000000000	1.006525527185	0.020976816402	47.982759055649
286	1	-0.329000000000	-0.657000000000	0.678000000000	1.083784892963	0.020916131849	51.815742067771
287	1	-0.091000000000	-0.804000000000	-0.588000000000	0.933004054699	0.020976816402	44.477867222878
288	1	0.678000000000	-0.329000000000	-0.657000000000	1.086083046486	0.020916131849	51.925616758747
289	1	0.147000000000	0.182000000000	-0.972000000000	0.991651191768	0.020990715672	47.242371688776
290	1	-0.588000000000	-0.091000000000	-0.804000000000	0.879755906759	0.020976816402	41.939438754059
291	1	-0.510000000000	-0.769000000000	-0.385000000000	1.006525527185	0.020973526405	47.990285836887
292	1	0.202000000000	-0.979000000000	0.000000000000	0.879755906759	0.019400875571	45.346196027585
293	1	0.855000000000	-0.326000000000	0.404000000000	0.842559102746	0.019491683898	43.226593821644
294	1	0.730000000000	0.653000000000	-0.202000000000	1.003613714905	0.019444568696	51.614089804504
295	1	-0.404000000000	0.855000000000	-0.326000000000	1.127418890009	0.019395391485	58.128184260083
296	1	-0.979000000000	0.000000000000	0.202000000000	0.841274377956	0.019400875571	43.362701588813
297	1	-0.202000000000	-0.730000000000	0.653000000000	0.930907538002	0.019382927170	48.027190620816
298	1	-0.202000000000	-0.730000000000	-0.653000000000	0.842270089539	0.019444568696	43.316470665454
299	1	0.653000000000	-0.202000000000	-0.730000000000	1.007143119623	0.019382927170	51.960321099552
300	1	0.000000000000	0.202000000000	-0.979000000000	0.991651191768	0.019400875571	51.113733920340
301	1	-0.653000000000	-0.202000000000	-0.730000000000	1.086341117024	0.019444568696	55.868614726679
302	1	-0.404000000000	-0.855000000000	-0.326000000000	1.086083046486	0.019491683898	55.720329356167
303	1	0.046000000000	0.338000000000	0.940000000000	1.084032189648	0.017555106833	61.750247375858