ITEM: TIMESTEP
-1
ITEM: NUMBER OF ATOMS
3872
ITEM: BOX BOUNDS
-1.000000000000	1.000000000000
-1.000000000000	1.000000000000
-1.000000000000	1.000000000000
ITEM: ATOMS index type x y z Vq Va Vq/a
0	1	0.851000000000	0.000000000000	0.526000000000	0.111628995951	0.001645071605	67.856618270251
1	1	0.526000000000	0.851000000000	0.000000000000	0.127527526068	0.001645071605	77.520957539823
2	1	-0.526000000000	0.851000000000	0.000000000000	0.183038544853	0.001645071605	111.264788875106
3	1	-0.851000000000	0.000000000000	0.526000000000	0.078601642984	0.001645071605	47.780073966480
4	1	0.000000000000	-0.526000000000	0.851000000000	0.172006858139	0.001645071605	104.558888245272
5	1	0.526000000000	-0.851000000000	0.000000000000	0.141629566656	0.001645071605	86.093253446010
6	1	0.851000000000	0.000000000000	-0.526000000000	0.152725272452	0.001645071605	92.838069756982
7	1	0.000000000000	0.526000000000	-0.851000000000	0.181061904374	0.001645071605	110.063236022954
8	1	-0.851000000000	0.000000000000	-0.526000000000	0.111935131108	0.001645071605	68.042710568938
9	1	-0.526000000000	-0.851000000000	0.000000000000	0.127861814854	0.001645071605	77.724163762067
10	1	0.000000000000	-0.526000000000	-0.851000000000	0.162104765163	0.001645071605	98.539640849815
11	1	0.653000000000	0.202000000000	0.730000000000	0.185929931126	0.003064214019	60.677854084373
12	1	0.404000000000	0.855000000000	0.326000000000	0.182810167350	0.003074258610	59.464798043633
13	1	-0.404000000000	0.855000000000	0.326000000000	0.134938105339	0.003074860148	43.884306550050
14	1	-0.653000000000	0.202000000000	0.730000000000	0.118980931493	0.003056078989	38.932544588033
15	1	0.000000000000	-0.202000000000	0.979000000000	0.138753721381	0.003070272939	45.192634052703
16	1	0.404000000000	-0.855000000000	0.326000000000	0.147996704356	0.003074860148	48.131198567240
17	1	0.653000000000	-0.202000000000	0.730000000000	0.184981603929	0.003056078989	60.529065057518
18	1	0.979000000000	0.000000000000	-0.202000000000	0.175977026294	0.003070272939	57.316411205466
19	1	0.730000000000	0.653000000000	0.202000000000	0.174429147792	0.003064214019	56.924596882696
20	1	0.202000000000	0.730000000000	-0.653000000000	0.118980931493	0.003056078989	38.932544588033
21	1	-0.202000000000	0.979000000000	0.000000000000	0.157874009775	0.003070272939	51.420187358961
22	1	-0.855000000000	0.326000000000	-0.404000000000	0.165779719071	0.003074258610	53.925105245380
23	1	-0.855000000000	0.326000000000	0.404000000000	0.147358995204	0.003074860148	47.923804044743
24	1	-0.730000000000	-0.653000000000	0.202000000000	0.147965680849	0.003064214019	48.288298380493
25	1	-0.326000000000	-0.404000000000	0.855000000000	0.168287941407	0.003074258610	54.740984016250
26	1	0.202000000000	-0.730000000000	-0.653000000000	0.152107477561	0.003064214019	49.639965296074
27	1	0.855000000000	-0.326000000000	-0.404000000000	0.178253113841	0.003074258610	57.982472029934
28	1	0.326000000000	0.404000000000	-0.855000000000	0.142676843037	0.003074860148	46.401083679710
29	1	-0.653000000000	0.202000000000	-0.730000000000	0.153842891485	0.003064214019	50.206314093344
30	1	-0.730000000000	-0.653000000000	-0.202000000000	0.162987462646	0.003056078989	53.332215315026
31	1	0.691000000000	0.162000000000	0.705000000000	0.101391466779	0.002986115993	33.954296150494
32	1	0.434000000000	0.858000000000	0.275000000000	0.158315289302	0.002953721297	53.598587469857
33	1	-0.422000000000	0.865000000000	0.270000000000	0.153258451637	0.002950356131	51.945746482513
34	1	-0.695000000000	0.175000000000	0.697000000000	0.164399932919	0.002964197309	55.461872407373
35	1	-0.008000000000	-0.260000000000	0.966000000000	0.118492967739	0.002984307423	39.705348996114
36	1	0.422000000000	-0.865000000000	0.270000000000	0.121040463972	0.002950356131	41.025713025896
37	1	0.695000000000	-0.175000000000	0.697000000000	0.150614055346	0.002964197309	50.811076209059
38	1	0.966000000000	-0.008000000000	-0.260000000000	0.186869595192	0.002984307423	62.617407897320
39	1	0.705000000000	0.691000000000	0.162000000000	0.170624706726	0.002986115993	57.139343248403
40	1	0.175000000000	0.697000000000	-0.695000000000	0.153305934253	0.002964197309	51.719207020754
41	1	-0.260000000000	0.966000000000	-0.008000000000	0.148253301739	0.002984307423	49.677623893674
42	1	-0.858000000000	0.275000000000	-0.434000000000	0.177904495756	0.002953721297	60.230630402521
43	1	-0.865000000000	0.270000000000	0.422000000000	0.164204718804	0.002950356131	55.655897623589
44	1	-0.705000000000	-0.691000000000	0.162000000000	0.145810164642	0.002986115993	48.829370649027
45	1	-0.275000000000	-0.434000000000	0.858000000000	0.153258451637	0.002953721297	51.886564852518
46	1	0.162000000000	-0.705000000000	-0.691000000000	0.148849759373	0.002986115993	49.847279778121
47	1	0.858000000000	-0.275000000000	-0.434000000000	0.163373053354	0.002953721297	55.310923720459
48	1	0.270000000000	0.422000000000	-0.865000000000	0.160652294321	0.002950356131	54.451831292341
49	1	-0.691000000000	0.162000000000	-0.705000000000	0.177939080228	0.002986115993	59.588803858094
50	1	-0.697000000000	-0.695000000000	-0.175000000000	0.178660433278	0.002964197309	60.272787091414
51	1	0.725000000000	0.123000000000	0.677000000000	0.147965680849	0.002822139433	52.430322586917
52	1	0.463000000000	0.858000000000	0.224000000000	0.156913522276	0.002832217707	55.403058135794
53	1	-0.439000000000	0.872000000000	0.215000000000	0.162411889377	0.002824696691	57.497107528146
54	1	-0.734000000000	0.147000000000	0.663000000000	0.148811788515	0.002826762248	52.643899782847
55	1	-0.015000000000	-0.316000000000	0.949000000000	0.181652096542	0.002824150198	64.320975806770
56	1	0.439000000000	-0.872000000000	0.215000000000	0.182694516162	0.002824696691	64.677569362851
57	1	0.734000000000	-0.147000000000	0.663000000000	0.153835592200	0.002826762248	54.421128726555
58	1	0.949000000000	-0.015000000000	-0.316000000000	0.182652963701	0.002824150198	64.675371674202
59	1	0.677000000000	0.725000000000	0.123000000000	0.152864195310	0.002822139433	54.166067605038
60	1	0.147000000000	0.663000000000	-0.734000000000	0.168601440101	0.002826762248	59.644719040859
61	1	-0.316000000000	0.949000000000	-0.015000000000	0.175977026294	0.002824150198	62.311496901355
62	1	-0.858000000000	0.224000000000	-0.463000000000	0.157594127108	0.002832217707	55.643366227449
63	1	-0.872000000000	0.215000000000	0.439000000000	0.153553432713	0.002824696691	54.361033948019
64	1	-0.677000000000	-0.725000000000	0.123000000000	0.170930810513	0.002822139433	60.567811966850
65	1	-0.224000000000	-0.463000000000	0.858000000000	0.119812065432	0.002832217707	42.303268260320
66	1	0.123000000000	-0.677000000000	-0.725000000000	0.177757785289	0.002822139433	62.986889740434
67	1	0.858000000000	-0.224000000000	-0.463000000000	0.139845540352	0.002832217707	49.376691630893
68	1	0.215000000000	0.439000000000	-0.872000000000	0.101832075233	0.002824696691	36.050622906662
69	1	-0.725000000000	0.123000000000	-0.677000000000	0.178211385870	0.002822139433	63.147619070755
70	1	-0.663000000000	-0.734000000000	-0.147000000000	0.101593039599	0.002826762248	35.939718544227
71	1	0.756000000000	0.085000000000	0.649000000000	0.128048815175	0.002644863960	48.414140429690
72	1	0.489000000000	0.855000000000	0.173000000000	0.157521413929	0.002679962682	58.777465442035
73	1	-0.454000000000	0.877000000000	0.160000000000	0.141129022050	0.002669052504	52.876075622989
74	1	-0.769000000000	0.121000000000	0.627000000000	0.111501069404	0.002654036766	42.011878221367
75	1	-0.022000000000	-0.368000000000	0.929000000000	0.171127506756	0.002645861296	64.677429247208
76	1	0.454000000000	-0.877000000000	0.160000000000	0.118722169102	0.002669052504	44.481016734782
77	1	0.769000000000	-0.121000000000	0.627000000000	0.138753721381	0.002654036766	52.280255934850
78	1	0.929000000000	-0.022000000000	-0.368000000000	0.154332890620	0.002645861296	58.329924877716
79	1	0.649000000000	0.756000000000	0.085000000000	0.156698590230	0.002644863960	59.246370551500
80	1	0.121000000000	0.627000000000	-0.769000000000	0.119667741279	0.002654036766	45.088953859499
81	1	-0.368000000000	0.929000000000	-0.022000000000	0.153258451637	0.002645861296	57.923841994456
82	1	-0.855000000000	0.173000000000	-0.489000000000	0.168120677333	0.002679962682	62.732469545210
83	1	-0.877000000000	0.160000000000	0.454000000000	0.181652096542	0.002669052504	68.058644878825
84	1	-0.649000000000	-0.756000000000	0.085000000000	0.148096121817	0.002644863960	55.993852258234
85	1	-0.173000000000	-0.489000000000	0.855000000000	0.139259844138	0.002679962682	51.963351979113
86	1	0.085000000000	-0.649000000000	-0.756000000000	0.173224303677	0.002644863960	65.494598700999
87	1	0.855000000000	-0.173000000000	-0.489000000000	0.121040463972	0.002679962682	45.164981133389
88	1	0.160000000000	0.454000000000	-0.877000000000	0.153215587907	0.002669052504	57.404486299645
89	1	-0.756000000000	0.085000000000	-0.649000000000	0.157165045418	0.002644863960	59.422733190484
90	1	-0.627000000000	-0.769000000000	-0.121000000000	0.163605688068	0.002654036766	61.644092565237
91	1	0.783000000000	0.048000000000	0.620000000000	0.109505519727	0.002479966185	44.156053579669
92	1	0.513000000000	0.850000000000	0.124000000000	0.157838883942	0.002484763192	63.522706892519
93	1	-0.467000000000	0.878000000000	0.107000000000	0.153256425106	0.002477506779	61.859134526323
94	1	-0.801000000000	0.095000000000	0.591000000000	0.128781212206	0.002504553286	51.418835008928
95	1	-0.028000000000	-0.418000000000	0.908000000000	0.145753584794	0.002495489486	58.406811818097
96	1	0.467000000000	-0.878000000000	0.107000000000	0.153422022487	0.002477506779	61.925974860710
97	1	0.801000000000	-0.095000000000	0.591000000000	0.185393772056	0.002504553286	74.022690217988
98	1	0.908000000000	-0.028000000000	-0.418000000000	0.157945292681	0.002495489486	63.292309415119
99	1	0.620000000000	0.783000000000	0.048000000000	0.129882192045	0.002479966185	52.372565741767
100	1	0.095000000000	0.591000000000	-0.801000000000	0.130315348792	0.002504553286	52.031374017293
101	1	-0.418000000000	0.908000000000	-0.028000000000	0.163449630808	0.002495489486	65.498024229096
102	1	-0.850000000000	0.124000000000	-0.513000000000	0.146917045314	0.002484763192	59.127181933498
103	1	-0.878000000000	0.107000000000	0.467000000000	0.151519118643	0.002477506779	61.157902756837
104	1	-0.620000000000	-0.783000000000	0.048000000000	0.129856694699	0.002479966185	52.362284413683
105	1	-0.124000000000	-0.513000000000	0.850000000000	0.111501069404	0.002484763192	44.873921894503
106	1	0.048000000000	-0.620000000000	-0.783000000000	0.177899265179	0.002479966185	71.734552784406
107	1	0.850000000000	-0.124000000000	-0.513000000000	0.182856638732	0.002484763192	73.591173324714
108	1	0.107000000000	0.467000000000	-0.878000000000	0.129882192045	0.002477506779	52.424555673650
109	1	-0.783000000000	0.048000000000	-0.620000000000	0.171926231233	0.002479966185	69.326038514050
110	1	-0.591000000000	-0.801000000000	-0.095000000000	0.120035019344	0.002504553286	47.926718107420
111	1	0.808000000000	0.013000000000	0.590000000000	0.135323571531	0.002313532251	58.492191530702
112	1	0.534000000000	0.842000000000	0.077000000000	0.139298306711	0.002287774403	60.888130637421
113	1	-0.478000000000	0.877000000000	0.056000000000	0.182810167350	0.002291865848	79.764776603044
114	1	-0.829000000000	0.069000000000	0.555000000000	0.135359905794	0.002321837229	58.298619763295
115	1	-0.035000000000	-0.465000000000	0.885000000000	0.181652096542	0.002331777325	77.902848856979
116	1	0.478000000000	-0.877000000000	0.056000000000	0.182218173786	0.002291865848	79.506474589116
117	1	0.829000000000	-0.069000000000	0.555000000000	0.178533320229	0.002321837229	76.893124961922
118	1	0.885000000000	-0.035000000000	-0.465000000000	0.165158052379	0.002331777325	70.829255686966
119	1	0.590000000000	0.808000000000	0.013000000000	0.171127506756	0.002313532251	73.968066228980
120	1	0.069000000000	0.555000000000	-0.829000000000	0.162104765163	0.002321837229	69.817454515661
121	1	-0.465000000000	0.885000000000	-0.035000000000	0.185393772056	0.002331777325	79.507494152007
122	1	-0.842000000000	0.077000000000	-0.534000000000	0.182176383906	0.002287774403	79.630396981693
123	1	-0.877000000000	0.056000000000	0.478000000000	0.172290133499	0.002291865848	75.174615332481
124	1	-0.590000000000	-0.808000000000	0.013000000000	0.171278194421	0.002313532251	74.033199388054
125	1	-0.077000000000	-0.534000000000	0.842000000000	0.142590429406	0.002287774403	62.327137337742
126	1	0.013000000000	-0.590000000000	-0.808000000000	0.138352728854	0.002313532251	59.801512946678
127	1	0.842000000000	-0.077000000000	-0.534000000000	0.172537055652	0.002287774403	75.416988421244
128	1	0.056000000000	0.478000000000	-0.877000000000	0.155310992125	0.002291865848	67.766179367369
129	1	-0.808000000000	0.013000000000	-0.590000000000	0.177333790477	0.002313532251	76.650667138636
130	1	-0.555000000000	-0.829000000000	-0.069000000000	0.169909985262	0.002321837229	73.179111396718
131	1	0.829000000000	-0.021000000000	0.560000000000	0.188104192762	0.002131266588	88.259344838033
132	1	0.553000000000	0.833000000000	0.032000000000	0.170624706726	0.002126263757	80.246256437112
133	1	-0.487000000000	0.873000000000	0.007000000000	0.162987462646	0.002139958858	76.163829992163
134	1	-0.854000000000	0.045000000000	0.519000000000	0.138998084980	0.002122044994	65.501949942259
135	1	-0.041000000000	-0.508000000000	0.860000000000	0.167898471967	0.002130443835	78.809151978506
136	1	0.487000000000	-0.873000000000	0.007000000000	0.155845143144	0.002139958858	72.826233348236
137	1	0.854000000000	-0.045000000000	0.519000000000	0.155396771455	0.002122044994	73.229725045953
138	1	0.860000000000	-0.041000000000	-0.508000000000	0.158595119896	0.002130443835	74.442290990092
139	1	0.560000000000	0.829000000000	-0.021000000000	0.178660433278	0.002131266588	83.828289832475
140	1	0.045000000000	0.519000000000	-0.854000000000	0.138352728854	0.002122044994	65.197830035178
141	1	-0.508000000000	0.860000000000	-0.041000000000	0.183746583113	0.002130443835	86.248029683739
142	1	-0.833000000000	0.032000000000	-0.553000000000	0.147358995204	0.002126263757	69.304193656093
143	1	-0.873000000000	0.007000000000	0.487000000000	0.157945292681	0.002139958858	73.807630504245
144	1	-0.560000000000	-0.829000000000	-0.021000000000	0.141969141245	0.002131266588	66.612568329889
145	1	-0.032000000000	-0.553000000000	0.833000000000	0.165419764666	0.002126263757	77.798327744205
146	1	-0.021000000000	-0.560000000000	-0.829000000000	0.153258451637	0.002131266588	71.909564235167
147	1	0.833000000000	-0.032000000000	-0.553000000000	0.120076759159	0.002126263757	56.473125097101
148	1	0.007000000000	0.487000000000	-0.873000000000	0.157384631288	0.002139958858	73.545634162435
149	1	-0.829000000000	-0.021000000000	-0.560000000000	0.148199954703	0.002131266588	69.536094411538
150	1	-0.519000000000	-0.854000000000	-0.045000000000	0.111501069404	0.002122044994	52.544158918567
151	1	0.326000000000	0.404000000000	0.855000000000	0.130306628129	0.003074258610	42.386358689750
152	1	0.202000000000	0.730000000000	0.653000000000	0.147644444824	0.003064214019	48.183463658204
153	1	-0.202000000000	0.730000000000	0.653000000000	0.172006858139	0.003056078989	56.283511903215
154	1	-0.326000000000	0.404000000000	0.855000000000	0.177994135593	0.003074860148	57.886904450461
155	1	0.000000000000	0.202000000000	0.979000000000	0.159688261385	0.003070272939	52.011096260732
156	1	0.202000000000	-0.730000000000	0.653000000000	0.156951669473	0.003056078989	51.357203152283
157	1	0.326000000000	-0.404000000000	0.855000000000	0.154984459234	0.003074860148	50.403742533846
158	1	0.979000000000	0.000000000000	0.202000000000	0.155164480376	0.003070272939	50.537682952192
159	1	0.855000000000	0.326000000000	0.404000000000	0.168132292443	0.003074258610	54.690354260019
160	1	0.404000000000	0.855000000000	-0.326000000000	0.171127506756	0.003074860148	55.653752857786
161	1	0.202000000000	0.979000000000	0.000000000000	0.129921666429	0.003070272939	42.315998936651
162	1	-0.730000000000	0.653000000000	-0.202000000000	0.153553432713	0.003064214019	50.111849812865
163	1	-0.730000000000	0.653000000000	0.202000000000	0.147965680849	0.003056078989	48.416837848621
164	1	-0.855000000000	-0.326000000000	0.404000000000	0.164004845924	0.003074258610	53.347771529491
165	1	-0.653000000000	-0.202000000000	0.730000000000	0.172290133499	0.003064214019	56.226533927573
166	1	0.404000000000	-0.855000000000	-0.326000000000	0.162841484133	0.003074258610	52.969351253452
167	1	0.730000000000	-0.653000000000	-0.202000000000	0.111412493077	0.003064214019	36.359240048895
168	1	0.653000000000	0.202000000000	-0.730000000000	0.148199954703	0.003056078989	48.493496159658
169	1	-0.326000000000	0.404000000000	-0.855000000000	0.129882192045	0.003074258610	42.248297408016
170	1	-0.855000000000	-0.326000000000	-0.404000000000	0.165779719071	0.003074860148	53.914555812152
171	1	0.377000000000	0.371000000000	0.849000000000	0.151729770164	0.003179212903	47.725576981484
172	1	0.241000000000	0.753000000000	0.613000000000	0.102247392517	0.003152235709	32.436467938883
173	1	-0.228000000000	0.760000000000	0.608000000000	0.111412493077	0.003183491881	34.996945878981
174	1	-0.382000000000	0.383000000000	0.841000000000	0.181279709514	0.003175586758	57.085421798465
175	1	-0.008000000000	0.143000000000	0.990000000000	0.153842891485	0.003171177984	48.512853032699
176	1	0.228000000000	-0.760000000000	0.608000000000	0.170867397488	0.003183491881	53.672949031312
177	1	0.382000000000	-0.383000000000	0.841000000000	0.141129022050	0.003175586758	44.441872580920
178	1	0.990000000000	-0.008000000000	0.143000000000	0.175887289270	0.003171177984	55.464338535995
179	1	0.849000000000	0.377000000000	0.371000000000	0.138781238968	0.003179212903	43.652703729745
180	1	0.383000000000	0.841000000000	-0.382000000000	0.146917045314	0.003175586758	46.264535196016
181	1	0.143000000000	0.990000000000	-0.008000000000	0.145753584794	0.003171177984	45.961969187193
182	1	-0.753000000000	0.613000000000	-0.241000000000	0.128369889948	0.003152235709	40.723442594575
183	1	-0.760000000000	0.608000000000	0.228000000000	0.178637595534	0.003183491881	56.113727376761
184	1	-0.849000000000	-0.377000000000	0.371000000000	0.171278194421	0.003179212903	53.874402130890
185	1	-0.613000000000	-0.241000000000	0.753000000000	0.147829292548	0.003152235709	46.896649294440
186	1	0.371000000000	-0.849000000000	-0.377000000000	0.158456414939	0.003179212903	49.841397776968
187	1	0.753000000000	-0.613000000000	-0.241000000000	0.172290133499	0.003152235709	54.656488090493
188	1	0.608000000000	0.228000000000	-0.760000000000	0.146177486349	0.003183491881	45.917342276648
189	1	-0.377000000000	0.371000000000	-0.849000000000	0.170211983292	0.003179212903	53.539032603542
190	1	-0.841000000000	-0.382000000000	-0.383000000000	0.139040514062	0.003175586758	43.784196331403
191	1	0.427000000000	0.336000000000	0.839000000000	0.167893177456	0.003247472586	51.699644260479
192	1	0.280000000000	0.773000000000	0.569000000000	0.136890205634	0.003249096965	42.131769879360
193	1	-0.255000000000	0.789000000000	0.560000000000	0.186082181647	0.003267751519	56.945021854216
194	1	-0.437000000000	0.361000000000	0.824000000000	0.176124554779	0.003230068056	54.526577068652
195	1	-0.016000000000	0.082000000000	0.997000000000	0.174755346280	0.003243704883	53.875229894462
196	1	0.255000000000	-0.789000000000	0.560000000000	0.153422022487	0.003267751519	46.950333159759
197	1	0.437000000000	-0.361000000000	0.824000000000	0.136890205634	0.003230068056	42.379975676027
198	1	0.997000000000	-0.016000000000	0.082000000000	0.172461327775	0.003243704883	53.168008187343
199	1	0.839000000000	0.427000000000	0.336000000000	0.147767822944	0.003247472586	45.502408109365
200	1	0.361000000000	0.824000000000	-0.437000000000	0.157842758345	0.003230068056	48.866697425772
201	1	0.082000000000	0.997000000000	-0.016000000000	0.157874009775	0.003243704883	48.670891918424
202	1	-0.773000000000	0.569000000000	-0.280000000000	0.169909985262	0.003249096965	52.294525865407
203	1	-0.789000000000	0.560000000000	0.255000000000	0.165779719071	0.003267751519	50.732045604297
204	1	-0.839000000000	-0.427000000000	0.336000000000	0.164204718804	0.003247472586	50.563850638422
205	1	-0.569000000000	-0.280000000000	0.773000000000	0.111529276480	0.003249096965	34.326238240966
206	1	0.336000000000	-0.839000000000	-0.427000000000	0.111529276480	0.003247472586	34.343408148117
207	1	0.773000000000	-0.569000000000	-0.280000000000	0.162481196908	0.003249096965	50.008109536627
208	1	0.560000000000	0.255000000000	-0.789000000000	0.167893177456	0.003267751519	51.378807872593
209	1	-0.427000000000	0.336000000000	-0.839000000000	0.129896001597	0.003247472586	39.999106427151
210	1	-0.824000000000	-0.437000000000	-0.361000000000	0.174814023009	0.003230068056	54.120848227216
211	1	0.477000000000	0.300000000000	0.826000000000	0.164004845924	0.003316370231	49.453117263526
212	1	0.318000000000	0.791000000000	0.523000000000	0.134964216829	0.003284877072	41.086535011571
213	1	-0.280000000000	0.814000000000	0.508000000000	0.165573258284	0.003296801383	50.222394088038
214	1	-0.491000000000	0.338000000000	0.803000000000	0.142676843037	0.003303445785	43.190308644810
215	1	-0.023000000000	0.019000000000	1.000000000000	0.172278032674	0.003298323214	52.232004421600
216	1	0.280000000000	-0.814000000000	0.508000000000	0.147644444824	0.003296801383	44.784149141635
217	1	0.491000000000	-0.338000000000	0.803000000000	0.138753721381	0.003303445785	42.002723949550
218	1	1.000000000000	-0.023000000000	0.019000000000	0.186082181647	0.003298323214	56.417206440983
219	1	0.826000000000	0.477000000000	0.300000000000	0.164204718804	0.003316370231	49.513385830035
220	1	0.338000000000	0.803000000000	-0.491000000000	0.174814023009	0.003303445785	52.918689876186
221	1	0.019000000000	1.000000000000	-0.023000000000	0.157384631288	0.003298323214	47.716558111196
222	1	-0.791000000000	0.523000000000	-0.318000000000	0.170867397488	0.003284877072	52.016374963238
223	1	-0.814000000000	0.508000000000	0.280000000000	0.152755788715	0.003296801383	46.334543993401
224	1	-0.826000000000	-0.477000000000	0.300000000000	0.134964216829	0.003316370231	40.696366034906
225	1	-0.523000000000	-0.318000000000	0.791000000000	0.153215587907	0.003284877072	46.642715860054
226	1	0.300000000000	-0.826000000000	-0.477000000000	0.176180078173	0.003316370231	53.124369687194
227	1	0.791000000000	-0.523000000000	-0.318000000000	0.145810164642	0.003284877072	44.388316958148
228	1	0.508000000000	0.280000000000	-0.814000000000	0.183746583113	0.003296801383	55.734805276314
229	1	-0.477000000000	0.300000000000	-0.826000000000	0.126810072984	0.003316370231	38.237610444541
230	1	-0.803000000000	-0.491000000000	-0.338000000000	0.181902905719	0.003303445785	55.064595446235
231	1	0.525000000000	0.261000000000	0.810000000000	0.142818385922	0.003303526873	43.232094488720
232	1	0.356000000000	0.806000000000	0.474000000000	0.164193446398	0.003305672837	49.670204667364
233	1	-0.305000000000	0.837000000000	0.454000000000	0.172456955118	0.003295851644	52.325460538554
234	1	-0.544000000000	0.312000000000	0.779000000000	0.161642045334	0.003317935110	48.717663235803
235	1	-0.031000000000	-0.044000000000	0.999000000000	0.109505519727	0.003312031548	33.062945853885
236	1	0.305000000000	-0.837000000000	0.454000000000	0.178552173286	0.003295851644	54.174821136935
237	1	0.544000000000	-0.312000000000	0.779000000000	0.153258451637	0.003317935110	46.190912886789
238	1	0.999000000000	-0.031000000000	-0.044000000000	0.139112412473	0.003312031548	42.002139916463
239	1	0.810000000000	0.525000000000	0.261000000000	0.109310030188	0.003303526873	33.088887842803
240	1	0.312000000000	0.779000000000	-0.544000000000	0.126419448418	0.003317935110	38.101844738152
241	1	-0.044000000000	0.999000000000	-0.031000000000	0.129896001597	0.003312031548	39.219433670138
242	1	-0.806000000000	0.474000000000	-0.356000000000	0.164746626962	0.003305672837	49.837547472134
243	1	-0.837000000000	0.454000000000	0.305000000000	0.170794059760	0.003295851644	51.820918605823
244	1	-0.810000000000	-0.525000000000	0.261000000000	0.138998084980	0.003303526873	42.075663471698
245	1	-0.474000000000	-0.356000000000	0.806000000000	0.151519118643	0.003305672837	45.836090289436
246	1	0.261000000000	-0.810000000000	-0.525000000000	0.162481196908	0.003303526873	49.184160792959
247	1	0.806000000000	-0.474000000000	-0.356000000000	0.177904495756	0.003305672837	53.817937982842
248	1	0.454000000000	0.305000000000	-0.837000000000	0.128444066785	0.003295851644	38.971434601441
249	1	-0.525000000000	0.261000000000	-0.810000000000	0.156133409268	0.003303526873	47.262642402542
250	1	-0.779000000000	-0.544000000000	-0.312000000000	0.148096121817	0.003317935110	44.635026575621
251	1	0.571000000000	0.222000000000	0.791000000000	0.153842891485	0.003256639977	47.239760169083
252	1	0.392000000000	0.817000000000	0.423000000000	0.118722169102	0.003269582193	36.311113189604
253	1	-0.329000000000	0.856000000000	0.399000000000	0.128781212206	0.003251688341	39.604414289384
254	1	-0.595000000000	0.286000000000	0.751000000000	0.148199954703	0.003289342866	45.054577999223
255	1	-0.039000000000	-0.106000000000	0.994000000000	0.178253113841	0.003279580319	54.352416007917
256	1	0.329000000000	-0.856000000000	0.399000000000	0.141629566656	0.003251688341	43.555701467451
257	1	0.595000000000	-0.286000000000	0.751000000000	0.175614848064	0.003289342866	53.389037032946
258	1	0.994000000000	-0.039000000000	-0.106000000000	0.163605688068	0.003279580319	49.886165955527
259	1	0.791000000000	0.571000000000	0.222000000000	0.147829292548	0.003256639977	45.393194696940
260	1	0.286000000000	0.751000000000	-0.595000000000	0.129102765300	0.003289342866	39.248801531668
261	1	-0.106000000000	0.994000000000	-0.039000000000	0.139323493902	0.003279580319	42.482110618499
262	1	-0.817000000000	0.423000000000	-0.392000000000	0.164746626962	0.003269582193	50.387669501487
263	1	-0.856000000000	0.399000000000	0.329000000000	0.148199954703	0.003251688341	45.576309643195
264	1	-0.791000000000	-0.571000000000	0.222000000000	0.155418108911	0.003256639977	47.723454233098
265	1	-0.423000000000	-0.392000000000	0.817000000000	0.147965680849	0.003269582193	45.255225928916
266	1	0.222000000000	-0.791000000000	-0.571000000000	0.148425384787	0.003256639977	45.576233732009
267	1	0.817000000000	-0.423000000000	-0.392000000000	0.170799136042	0.003269582193	52.238826230900
268	1	0.399000000000	0.329000000000	-0.856000000000	0.101792764013	0.003251688341	31.304588057399
269	1	-0.571000000000	0.222000000000	-0.791000000000	0.142818385922	0.003256639977	43.854520891730
270	1	-0.751000000000	-0.595000000000	-0.286000000000	0.141629566656	0.003289342866	43.057100595444
271	1	0.614000000000	0.183000000000	0.768000000000	0.162857447928	0.003192746661	51.008572003615
272	1	0.426000000000	0.825000000000	0.371000000000	0.170183552707	0.003206683774	53.071510851607
273	1	-0.351000000000	0.872000000000	0.342000000000	0.159042042909	0.003207580879	49.583174649410
274	1	-0.643000000000	0.258000000000	0.721000000000	0.153305934253	0.003197060532	47.952152515764
275	1	-0.047000000000	-0.168000000000	0.985000000000	0.163369831664	0.003207538465	50.933085744605
276	1	0.351000000000	-0.872000000000	0.342000000000	0.159042042909	0.003207580879	49.583174649410
277	1	0.643000000000	-0.258000000000	0.721000000000	0.119837941307	0.003197060532	37.483788652439
278	1	0.985000000000	-0.047000000000	-0.168000000000	0.129031632549	0.003207538465	40.227618143549
279	1	0.768000000000	0.614000000000	0.183000000000	0.162481196908	0.003192746661	50.890726443235
280	1	0.258000000000	0.721000000000	-0.643000000000	0.157384631288	0.003197060532	49.227917235765
281	1	-0.168000000000	0.985000000000	-0.047000000000	0.165450528694	0.003207538465	51.581775402528
282	1	-0.825000000000	0.371000000000	-0.426000000000	0.165573258284	0.003206683774	51.633796768064
283	1	-0.872000000000	0.342000000000	0.351000000000	0.155310992125	0.003207580879	48.419976923228
284	1	-0.768000000000	-0.614000000000	0.183000000000	0.121591377281	0.003192746661	38.083628363269
285	1	-0.371000000000	-0.426000000000	0.825000000000	0.162841484133	0.003206683774	50.781896691991
286	1	0.183000000000	-0.768000000000	-0.614000000000	0.157838883942	0.003192746661	49.436707863108
287	1	0.825000000000	-0.371000000000	-0.426000000000	0.161642045334	0.003206683774	50.407853324095
288	1	0.342000000000	0.351000000000	-0.872000000000	0.178604718503	0.003207580879	55.682062357493
289	1	-0.614000000000	0.183000000000	-0.768000000000	0.145444797130	0.003192746661	45.554756637723
290	1	-0.721000000000	-0.643000000000	-0.258000000000	0.172278032674	0.003197060532	53.886384360177
291	1	0.654000000000	0.143000000000	0.743000000000	0.118375457133	0.003114905567	38.002903973609
292	1	0.458000000000	0.830000000000	0.318000000000	0.168577952908	0.003119164350	54.045870624095
293	1	-0.371000000000	0.884000000000	0.285000000000	0.135062909314	0.003099537308	43.575184265249
294	1	-0.687000000000	0.230000000000	0.689000000000	0.159085159608	0.003093952777	51.418095575289
295	1	-0.054000000000	-0.228000000000	0.972000000000	0.185929931126	0.003115310359	59.682635022196
296	1	0.371000000000	-0.884000000000	0.285000000000	0.153256425106	0.003099537308	49.444936420478
297	1	0.687000000000	-0.230000000000	0.689000000000	0.168120677333	0.003093952777	54.338475547177
298	1	0.972000000000	-0.054000000000	-0.228000000000	0.170183552707	0.003115310359	54.628121472878
299	1	0.743000000000	0.654000000000	0.143000000000	0.140037932009	0.003114905567	44.957360349156
300	1	0.230000000000	0.689000000000	-0.687000000000	0.162850999584	0.003093952777	52.635257001719
301	1	-0.228000000000	0.972000000000	-0.054000000000	0.163029718301	0.003115310359	52.331774212975
302	1	-0.830000000000	0.318000000000	-0.458000000000	0.156913522276	0.003119164350	50.306269460719
303	1	-0.884000000000	0.285000000000	0.371000000000	0.156220879034	0.003099537308	50.401354631982